# vtk DataFile Version 2.0
VTK from Matlab
ASCII
DATASET STRUCTURED_GRID
DIMENSIONS 14868 1 1
POINTS 14868 float
26.00 99.00 9.00 26.00 100.00 9.00 29.00 98.00 10.00 30.00 98.00 10.00 32.00 98.00 10.00 33.00 98.00 10.00 34.00 98.00 10.00 35.00 98.00 10.00 26.00 99.00 10.00 27.00 99.00 10.00 29.00 99.00 10.00 30.00 99.00 10.00 32.00 99.00 10.00 33.00 99.00 10.00 34.00 99.00 10.00 35.00 99.00 10.00 36.00 99.00 10.00 33.00 77.00 11.00 32.00 78.00 11.00 25.00 96.00 11.00 26.00 96.00 11.00 27.00 96.00 11.00 28.00 96.00 11.00 29.00 96.00 11.00 25.00 97.00 11.00 26.00 97.00 11.00 27.00 97.00 11.00 28.00 97.00 11.00 29.00 97.00 11.00 30.00 97.00 11.00 31.00 97.00 11.00 32.00 97.00 11.00 33.00 97.00 11.00 34.00 97.00 11.00 35.00 97.00 11.00 25.00 98.00 11.00 26.00 98.00 11.00 27.00 98.00 11.00 28.00 98.00 11.00 29.00 98.00 11.00 30.00 98.00 11.00 31.00 98.00 11.00 32.00 98.00 11.00 33.00 98.00 11.00 34.00 98.00 11.00 35.00 98.00 11.00 36.00 98.00 11.00 25.00 99.00 11.00 26.00 99.00 11.00 27.00 99.00 11.00 28.00 99.00 11.00 29.00 99.00 11.00 33.00 99.00 11.00 34.00 99.00 11.00 35.00 99.00 11.00 36.00 99.00 11.00 37.00 99.00 11.00 31.00 74.00 12.00 29.00 75.00 12.00 30.00 75.00 12.00 31.00 75.00 12.00 32.00 75.00 12.00 33.00 75.00 12.00 34.00 75.00 12.00 35.00 75.00 12.00 28.00 76.00 12.00 29.00 76.00 12.00 30.00 76.00 12.00 31.00 76.00 12.00 32.00 76.00 12.00 33.00 76.00 12.00 34.00 76.00 12.00 35.00 76.00 12.00 36.00 76.00 12.00 37.00 76.00 12.00 27.00 77.00 12.00 28.00 77.00 12.00 29.00 77.00 12.00 30.00 77.00 12.00 31.00 77.00 12.00 32.00 77.00 12.00 33.00 77.00 12.00 34.00 77.00 12.00 35.00 77.00 12.00 36.00 77.00 12.00 37.00 77.00 12.00 38.00 77.00 12.00 23.00 78.00 12.00 26.00 78.00 12.00 27.00 78.00 12.00 28.00 78.00 12.00 29.00 78.00 12.00 30.00 78.00 12.00 31.00 78.00 12.00 32.00 78.00 12.00 33.00 78.00 12.00 34.00 78.00 12.00 35.00 78.00 12.00 36.00 78.00 12.00 37.00 78.00 12.00 38.00 78.00 12.00 39.00 78.00 12.00 40.00 78.00 12.00 23.00 79.00 12.00 26.00 79.00 12.00 27.00 79.00 12.00 28.00 79.00 12.00 29.00 79.00 12.00 30.00 79.00 12.00 31.00 79.00 12.00 32.00 79.00 12.00 33.00 79.00 12.00 34.00 79.00 12.00 35.00 79.00 12.00 36.00 79.00 12.00 37.00 79.00 12.00 38.00 79.00 12.00 39.00 79.00 12.00 40.00 79.00 12.00 26.00 80.00 12.00 27.00 80.00 12.00 28.00 80.00 12.00 29.00 80.00 12.00 30.00 80.00 12.00 31.00 80.00 12.00 32.00 80.00 12.00 33.00 80.00 12.00 34.00 80.00 12.00 35.00 80.00 12.00 36.00 80.00 12.00 37.00 80.00 12.00 38.00 80.00 12.00 39.00 80.00 12.00 40.00 80.00 12.00 22.00 81.00 12.00 26.00 81.00 12.00 27.00 81.00 12.00 28.00 81.00 12.00 29.00 81.00 12.00 30.00 81.00 12.00 31.00 81.00 12.00 32.00 81.00 12.00 33.00 81.00 12.00 34.00 81.00 12.00 35.00 81.00 12.00 36.00 81.00 12.00 39.00 81.00 12.00 40.00 81.00 12.00 26.00 82.00 12.00 27.00 82.00 12.00 28.00 82.00 12.00 29.00 82.00 12.00 30.00 82.00 12.00 31.00 82.00 12.00 32.00 82.00 12.00 33.00 82.00 12.00 34.00 82.00 12.00 35.00 82.00 12.00 40.00 82.00 12.00 26.00 83.00 12.00 27.00 83.00 12.00 28.00 83.00 12.00 29.00 83.00 12.00 30.00 83.00 12.00 31.00 83.00 12.00 32.00 83.00 12.00 33.00 83.00 12.00 34.00 83.00 12.00 40.00 83.00 12.00 27.00 84.00 12.00 28.00 84.00 12.00 29.00 84.00 12.00 30.00 84.00 12.00 31.00 84.00 12.00 32.00 84.00 12.00 33.00 84.00 12.00 34.00 84.00 12.00 28.00 85.00 12.00 29.00 85.00 12.00 30.00 85.00 12.00 31.00 85.00 12.00 32.00 85.00 12.00 33.00 85.00 12.00 29.00 86.00 12.00 30.00 86.00 12.00 31.00 86.00 12.00 32.00 86.00 12.00 33.00 86.00 12.00 31.00 87.00 12.00 32.00 87.00 12.00 33.00 87.00 12.00 32.00 88.00 12.00 25.00 95.00 12.00 26.00 95.00 12.00 24.00 96.00 12.00 25.00 96.00 12.00 26.00 96.00 12.00 27.00 96.00 12.00 28.00 96.00 12.00 29.00 96.00 12.00 24.00 97.00 12.00 25.00 97.00 12.00 26.00 97.00 12.00 27.00 97.00 12.00 28.00 97.00 12.00 29.00 97.00 12.00 30.00 97.00 12.00 31.00 97.00 12.00 32.00 97.00 12.00 33.00 97.00 12.00 34.00 97.00 12.00 35.00 97.00 12.00 36.00 97.00 12.00 24.00 98.00 12.00 25.00 98.00 12.00 26.00 98.00 12.00 27.00 98.00 12.00 28.00 98.00 12.00 29.00 98.00 12.00 30.00 98.00 12.00 31.00 98.00 12.00 32.00 98.00 12.00 33.00 98.00 12.00 34.00 98.00 12.00 35.00 98.00 12.00 36.00 98.00 12.00 37.00 98.00 12.00 25.00 99.00 12.00 26.00 99.00 12.00 27.00 99.00 12.00 34.00 99.00 12.00 35.00 99.00 12.00 36.00 99.00 12.00 37.00 99.00 12.00 33.00 50.00 13.00 33.00 51.00 13.00 29.00 74.00 13.00 30.00 74.00 13.00 31.00 74.00 13.00 32.00 74.00 13.00 33.00 74.00 13.00 34.00 74.00 13.00 23.00 75.00 13.00 27.00 75.00 13.00 28.00 75.00 13.00 29.00 75.00 13.00 30.00 75.00 13.00 31.00 75.00 13.00 32.00 75.00 13.00 33.00 75.00 13.00 34.00 75.00 13.00 35.00 75.00 13.00 36.00 75.00 13.00 39.00 75.00 13.00 23.00 76.00 13.00 25.00 76.00 13.00 26.00 76.00 13.00 27.00 76.00 13.00 28.00 76.00 13.00 29.00 76.00 13.00 30.00 76.00 13.00 31.00 76.00 13.00 32.00 76.00 13.00 33.00 76.00 13.00 34.00 76.00 13.00 35.00 76.00 13.00 36.00 76.00 13.00 37.00 76.00 13.00 38.00 76.00 13.00 39.00 76.00 13.00 22.00 77.00 13.00 23.00 77.00 13.00 24.00 77.00 13.00 25.00 77.00 13.00 26.00 77.00 13.00 27.00 77.00 13.00 28.00 77.00 13.00 29.00 77.00 13.00 30.00 77.00 13.00 31.00 77.00 13.00 32.00 77.00 13.00 33.00 77.00 13.00 34.00 77.00 13.00 35.00 77.00 13.00 36.00 77.00 13.00 37.00 77.00 13.00 38.00 77.00 13.00 39.00 77.00 13.00 40.00 77.00 13.00 22.00 78.00 13.00 23.00 78.00 13.00 24.00 78.00 13.00 25.00 78.00 13.00 26.00 78.00 13.00 27.00 78.00 13.00 28.00 78.00 13.00 29.00 78.00 13.00 30.00 78.00 13.00 31.00 78.00 13.00 32.00 78.00 13.00 33.00 78.00 13.00 34.00 78.00 13.00 35.00 78.00 13.00 36.00 78.00 13.00 37.00 78.00 13.00 38.00 78.00 13.00 39.00 78.00 13.00 40.00 78.00 13.00 22.00 79.00 13.00 23.00 79.00 13.00 24.00 79.00 13.00 25.00 79.00 13.00 26.00 79.00 13.00 27.00 79.00 13.00 28.00 79.00 13.00 29.00 79.00 13.00 30.00 79.00 13.00 31.00 79.00 13.00 32.00 79.00 13.00 33.00 79.00 13.00 34.00 79.00 13.00 35.00 79.00 13.00 36.00 79.00 13.00 37.00 79.00 13.00 38.00 79.00 13.00 39.00 79.00 13.00 40.00 79.00 13.00 41.00 79.00 13.00 22.00 80.00 13.00 23.00 80.00 13.00 24.00 80.00 13.00 25.00 80.00 13.00 26.00 80.00 13.00 27.00 80.00 13.00 28.00 80.00 13.00 29.00 80.00 13.00 30.00 80.00 13.00 31.00 80.00 13.00 32.00 80.00 13.00 33.00 80.00 13.00 34.00 80.00 13.00 35.00 80.00 13.00 36.00 80.00 13.00 37.00 80.00 13.00 38.00 80.00 13.00 39.00 80.00 13.00 40.00 80.00 13.00 41.00 80.00 13.00 21.00 81.00 13.00 23.00 81.00 13.00 24.00 81.00 13.00 25.00 81.00 13.00 26.00 81.00 13.00 27.00 81.00 13.00 28.00 81.00 13.00 29.00 81.00 13.00 30.00 81.00 13.00 31.00 81.00 13.00 32.00 81.00 13.00 33.00 81.00 13.00 34.00 81.00 13.00 35.00 81.00 13.00 36.00 81.00 13.00 37.00 81.00 13.00 38.00 81.00 13.00 39.00 81.00 13.00 40.00 81.00 13.00 41.00 81.00 13.00 20.00 82.00 13.00 21.00 82.00 13.00 23.00 82.00 13.00 24.00 82.00 13.00 25.00 82.00 13.00 26.00 82.00 13.00 27.00 82.00 13.00 28.00 82.00 13.00 29.00 82.00 13.00 30.00 82.00 13.00 31.00 82.00 13.00 32.00 82.00 13.00 33.00 82.00 13.00 34.00 82.00 13.00 35.00 82.00 13.00 36.00 82.00 13.00 37.00 82.00 13.00 38.00 82.00 13.00 39.00 82.00 13.00 40.00 82.00 13.00 41.00 82.00 13.00 42.00 82.00 13.00 18.00 83.00 13.00 20.00 83.00 13.00 21.00 83.00 13.00 23.00 83.00 13.00 24.00 83.00 13.00 25.00 83.00 13.00 26.00 83.00 13.00 27.00 83.00 13.00 28.00 83.00 13.00 29.00 83.00 13.00 30.00 83.00 13.00 31.00 83.00 13.00 32.00 83.00 13.00 33.00 83.00 13.00 34.00 83.00 13.00 35.00 83.00 13.00 36.00 83.00 13.00 37.00 83.00 13.00 38.00 83.00 13.00 39.00 83.00 13.00 40.00 83.00 13.00 41.00 83.00 13.00 42.00 83.00 13.00 46.00 83.00 13.00 18.00 84.00 13.00 19.00 84.00 13.00 20.00 84.00 13.00 21.00 84.00 13.00 23.00 84.00 13.00 24.00 84.00 13.00 25.00 84.00 13.00 26.00 84.00 13.00 27.00 84.00 13.00 28.00 84.00 13.00 29.00 84.00 13.00 30.00 84.00 13.00 31.00 84.00 13.00 32.00 84.00 13.00 33.00 84.00 13.00 34.00 84.00 13.00 35.00 84.00 13.00 36.00 84.00 13.00 37.00 84.00 13.00 38.00 84.00 13.00 39.00 84.00 13.00 40.00 84.00 13.00 41.00 84.00 13.00 42.00 84.00 13.00 44.00 84.00 13.00 19.00 85.00 13.00 20.00 85.00 13.00 21.00 85.00 13.00 23.00 85.00 13.00 24.00 85.00 13.00 25.00 85.00 13.00 26.00 85.00 13.00 27.00 85.00 13.00 28.00 85.00 13.00 29.00 85.00 13.00 30.00 85.00 13.00 31.00 85.00 13.00 32.00 85.00 13.00 33.00 85.00 13.00 34.00 85.00 13.00 35.00 85.00 13.00 36.00 85.00 13.00 37.00 85.00 13.00 38.00 85.00 13.00 39.00 85.00 13.00 41.00 85.00 13.00 42.00 85.00 13.00 44.00 85.00 13.00 18.00 86.00 13.00 19.00 86.00 13.00 26.00 86.00 13.00 27.00 86.00 13.00 28.00 86.00 13.00 29.00 86.00 13.00 30.00 86.00 13.00 31.00 86.00 13.00 32.00 86.00 13.00 33.00 86.00 13.00 34.00 86.00 13.00 35.00 86.00 13.00 36.00 86.00 13.00 37.00 86.00 13.00 38.00 86.00 13.00 41.00 86.00 13.00 42.00 86.00 13.00 28.00 87.00 13.00 29.00 87.00 13.00 30.00 87.00 13.00 31.00 87.00 13.00 32.00 87.00 13.00 33.00 87.00 13.00 34.00 87.00 13.00 35.00 87.00 13.00 36.00 87.00 13.00 37.00 87.00 13.00 41.00 87.00 13.00 42.00 87.00 13.00 30.00 88.00 13.00 31.00 88.00 13.00 32.00 88.00 13.00 33.00 88.00 13.00 34.00 88.00 13.00 35.00 88.00 13.00 36.00 88.00 13.00 37.00 88.00 13.00 42.00 88.00 13.00 32.00 89.00 13.00 33.00 89.00 13.00 34.00 89.00 13.00 35.00 89.00 13.00 36.00 89.00 13.00 42.00 89.00 13.00 33.00 90.00 13.00 34.00 90.00 13.00 35.00 90.00 13.00 24.00 96.00 13.00 25.00 96.00 13.00 26.00 96.00 13.00 27.00 96.00 13.00 24.00 97.00 13.00 25.00 97.00 13.00 26.00 97.00 13.00 27.00 97.00 13.00 28.00 97.00 13.00 29.00 97.00 13.00 34.00 97.00 13.00 35.00 97.00 13.00 36.00 97.00 13.00 24.00 98.00 13.00 25.00 98.00 13.00 26.00 98.00 13.00 27.00 98.00 13.00 28.00 98.00 13.00 29.00 98.00 13.00 34.00 98.00 13.00 35.00 98.00 13.00 36.00 98.00 13.00 37.00 98.00 13.00 25.00 99.00 13.00 26.00 99.00 13.00 35.00 99.00 13.00 36.00 99.00 13.00 37.00 99.00 13.00 30.00 39.00 14.00 30.00 40.00 14.00 30.00 41.00 14.00 30.00 42.00 14.00 35.00 43.00 14.00 20.00 47.00 14.00 29.00 48.00 14.00 19.00 49.00 14.00 20.00 49.00 14.00 21.00 49.00 14.00 28.00 49.00 14.00 29.00 49.00 14.00 31.00 
[...]
POINT_DATA 14868
VECTORS vector_field float
-2.52 7.00 -3.05 -2.22 6.00 -2.85 -1.02 8.00 -2.87 -0.30 8.00 -2.51 1.05 8.00 -2.05 2.07 8.00 -1.89 2.95 8.00 -1.73 3.74 7.92 -1.46 -2.10 7.00 -3.09 -1.81 7.00 -2.93 -0.67 7.00 -1.98 -0.30 7.00 -1.70 0.26 7.00 -1.45 0.84 7.00 -1.38 1.63 7.00 -1.33 2.51 7.00 -1.29 3.25 7.00 -1.04 1.48 2.75 2.80 1.18 2.98 3.71 -2.03 7.21 -2.76 -2.12 8.02 -3.15 -1.88 8.11 -3.31 -1.21 7.80 -3.19 -0.28 7.37 -2.91 -1.82 8.46 -2.76 -1.80 9.00 -3.15 -1.69 9.00 -3.23 -1.31 9.00 -3.05 -0.68 8.97 -2.80 0.05 8.72 -2.57 0.85 8.26 -2.42 1.92 7.68 -2.32 3.01 7.31 -2.19 3.78 7.04 -2.06 4.38 6.17 -1.90 -1.64 8.00 -2.74 -1.64 8.00 -3.03 -1.41 8.00 -2.92 -1.05 8.00 -2.60 -0.61 8.00 -2.25 -0.20 8.00 -2.04 0.18 8.00 -1.90 0.69 8.00 -1.83 1.43 8.00 -1.78 2.20 8.00 -1.73 3.01 8.00 -1.67 3.79 7.70 -1.43 -1.44 7.00 -2.73 -1.19 7.00 -2.74 -0.87 7.00 -2.36 -0.56 7.00 -1.88 -0.31 7.00 -1.56 0.55 7.00 -1.37 1.12 7.00 -1.38 1.86 7.00 -1.35 2.76 7.00 -1.23 3.33 7.00 -0.88 1.19 1.58 3.68 0.83 2.46 5.43 0.71 3.07 6.33 0.53 3.33 6.73 0.32 3.33 6.66 0.19 3.09 6.11 0.39 2.58 4.96 1.14 1.76 2.83 0.85 2.62 6.14 0.80 3.15 7.04 0.59 3.43 7.60 0.34 3.54 7.84 0.06 3.51 7.76 -0.21 3.40 7.42 -0.32 3.18 6.73 -0.05 2.81 5.47 0.92 2.43 3.45 2.40 2.24 1.21 0.98 2.39 6.27 1.05 2.89 7.26 0.86 3.18 7.91 0.59 3.33 8.29 0.27 3.37 8.41 -0.06 3.33 8.28 -0.38 3.24 7.94 -0.61 3.10 7.37 -0.60 2.90 6.47 -0.09 2.72 5.09 1.29 2.82 3.07 3.43 2.93 1.16 -3.83 0.29 -1.07 1.04 1.97 5.94 1.34 2.49 7.10 1.22 2.78 7.90 0.94 2.95 8.41 0.60 3.03 8.66 0.24 3.03 8.69 -0.13 2.99 8.48 -0.48 2.91 8.09 -0.76 2.81 7.54 -0.86 2.68 6.77 -0.58 2.60 5.69 0.49 2.78 4.07 2.87 3.38 2.20 4.95 2.67 0.28 5.15 1.61 -0.82 -4.40 0.23 -0.45 1.54 1.98 6.55 1.58 2.30 7.51 1.36 2.49 8.17 1.03 2.59 8.58 0.63 2.63 8.75 0.23 2.62 8.73 -0.17 2.58 8.48 -0.54 2.52 8.02 -0.85 2.44 7.42 -0.99 2.37 6.66 -0.79 2.35 5.67 0.15 2.61 4.25 2.46 3.37 2.50 5.12 2.75 0.48 5.38 1.62 -1.07 1.86 1.77 6.77 1.76 1.98 7.60 1.48 2.11 8.15 1.10 2.17 8.47 0.67 2.19 8.58 0.23 2.18 8.54 -0.19 2.15 8.26 -0.58 2.10 7.75 -0.89 2.06 7.07 -1.03 2.04 6.22 -0.79 2.11 5.17 0.16 2.47 3.76 2.34 3.26 2.15 4.94 2.65 0.48 5.39 1.48 -1.24 -3.97 -0.31 -1.57 2.10 1.49 6.68 1.92 1.62 7.44 1.59 1.70 7.93 1.17 1.74 8.19 0.71 1.75 8.26 0.24 1.75 8.17 -0.21 1.72 7.87 -0.61 1.70 7.31 -0.92 1.70 6.52 -1.00 1.75 5.49 -0.67 1.93 4.23 4.33 2.51 0.21 5.15 1.35 -1.31 2.32 1.25 6.28 2.07 1.31 7.09 1.70 1.34 7.58 1.25 1.35 7.82 0.76 1.35 7.87 0.26 1.35 7.72 -0.22 1.34 7.39 -0.63 1.34 6.79 -0.92 1.39 5.83 -0.95 1.53 4.56 4.62 1.33 -1.31 2.54 1.14 5.66 2.22 1.12 6.59 1.80 1.09 7.11 1.31 1.07 7.36 0.80 1.03 7.45 0.28 1.02 7.26 -0.22 1.03 6.88 -0.64 1.06 6.20 -0.91 1.17 5.09 3.74 1.36 -1.44 2.35 0.99 6.00 1.89 0.92 6.61 1.37 0.86 6.89 0.83 0.80 7.01 0.30 0.78 6.82 -0.20 0.78 6.42 -0.63 0.84 5.67 -0.88 1.01 4.43 1.96 0.81 6.09 1.42 0.70 6.44 0.86 0.63 6.58 0.32 0.58 6.43 -0.18 0.58 6.03 -0.60 0.68 5.26 1.44 0.62 5.99 0.88 0.51 6.17 0.34 0.46 6.08 -0.15 0.46 5.70 -0.56 0.57 4.94 0.36 0.41 5.71 -0.12 0.43 5.35 -0.50 0.56 4.58 -0.04 0.51 4.77 -1.21 6.86 -2.49 -0.68 6.73 -2.03 -1.53 6.94 -2.28 -1.54 8.13 -2.56 -1.35 8.50 -2.54 -1.05 8.06 -2.18 -0.48 7.36 -1.64 0.09 6.63 -1.31 -1.39 7.75 -2.14 -1.20 9.00 -2.55 -0.97 9.00 -2.62 -0.86 9.00 -2.42 -0.65 8.78 -2.05 -0.30 8.40 -1.75 0.11 7.97 -1.61 0.58 7.52 -1.60 1.27 7.11 -1.67 2.15 6.92 -1.76 2.86 7.23 -1.83 3.47 7.34 -1.91 4.01 6.69 -1.91 -1.19 8.00 -2.03 -1.04 8.00 -2.53 -0.76 8.00 -2.54 -0.56 8.00 -2.27 -0.39 8.00 -1.93 -0.21 8.00 -1.67 -0.02 8.00 -1.54 0.17 8.00 -1.49 0.47 8.00 -1.52 0.97 8.00 -1.59 1.59 8.00 -1.66 2.20 8.00 -1.72 3.06 8.00 -1.70 3.56 7.27 -1.48 -0.67 7.00 -2.43 -0.33 7.00 -2.24 -0.17 7.00 -1.85 0.75 7.00 -1.45 1.29 7.00 -1.45 2.18 7.00 -1.38 2.96 7.00 -1.16 5.15 -1.05 -1.43 5.42 -1.03 -1.32 0.69 3.57 6.76 0.48 4.03 7.52 0.18 4.23 7.89 -0.15 4.27 7.94 -0.43 4.10 7.58 -0.51 3.65 6.68 -3.31 -0.92 -1.43 0.71 2.72 6.14 0.92 3.58 7.34 0.77 4.01 8.14 0.47 4.22 8.65 0.09 4.32 8.92 -0.33 4.33 8.95 -0.73 4.25 8.79 -1.04 4.07 8.36 -1.14 3.71 7.51 -0.79 3.01 5.99 3.29 0.02 -0.06 -5.13 -0.44 -0.68 -1.76 0.78 4.34 0.82 2.52 6.40 1.23 3.27 7.50 1.16 3.67 8.30 0.89 3.90 8.85 0.52 4.01 9.19 0.08 4.04 9.35 -0.39 4.02 9.36 -0.85 3.96 9.26 -1.26 3.86 9.00 -1.54 3.67 8.49 -1.57 3.36 7.64 -1.08 2.84 6.21 0.55 2.14 3.96 3.98 1.68 1.56 -6.11 -0.45 -1.02 -6.70 -0.09 -0.10 -4.24 0.19 3.26 0.77 2.14 6.41 1.51 2.88 7.49 1.55 3.23 8.27 1.34 3.43 8.84 1.00 3.55 9.22 0.56 3.60 9.45 0.08 3.60 9.55 -0.41 3.57 9.54 -0.90 3.52 9.44 -1.35 3.44 9.24 -1.72 3.31 8.89 -1.93 3.12 8.34 -1.78 2.85 7.42 -0.82 2.52 5.92 2.70 2.44 3.48 6.19 1.04 0.17 -6.73 -0.63 -1.10 -7.26 0.06 0.78 -0.06 1.41 5.99 1.62 2.38 7.34 1.88 2.75 8.13 1.76 2.94 8.72 1.47 3.04 9.14 1.07 3.09 9.41 0.60 3.11 9.56 0.09 3.09 9.62 -0.42 3.05 9.59 -0.92 3.00 9.48 -1.40 2.93 9.29 -1.81 2.84 9.03 -2.11 2.71 8.64 -2.13 2.53 7.99 -1.52 2.34 6.87 1.19 2.43 4.89 6.60 1.30 0.26 -7.11 -0.93 -1.15 -5.85 0.03 2.70 1.29 1.71 6.96 2.06 2.23 7.93 2.11 2.43 8.53 1.90 2.53 8.97 1.55 2.58 9.27 1.12 2.59 9.48 0.62 2.58 9.58 0.10 2.55 9.62 -0.42 2.51 9.57 -0.94 2.47 9.45 -1.43 2.41 9.27 -1.87 2.32 9.03 -2.21 2.21 8.72 -2.31 2.07 8.21 -1.90 1.95 7.31 0.33 2.14 5.67 6.90 1.22 0.38 7.13 -0.55 -1.80 -7.39 -1.31 -1.03 -1.37 0.17 5.21 1.89 1.61 7.54 2.34 1.91 8.30 2.27 2.02 8.75 1.99 2.06 9.08 1.60 2.08 9.30 1.15 2.07 9.46 0.64 2.05 9.54 0.10 2.01 9.56 -0.43 1.98 9.50 -0.96 1.93 9.37 -1.45 1.88 9.17 -1.90 1.80 8.94 -2.26 1.70 8.65 -2.40 1.59 8.22 -2.08 1.50 7.45 -0.09 1.76 5.97 7.17 0.92 0.51 7.01 -0.15 -3.08 -5.74 -1.60 -3.45 0.39 0.33 6.20 2.25 1.35 7.89 2.53 1.54 8.51 2.38 1.59 8.85 2.06 1.60 9.09 1.65 1.59 9.25 1.18 1.57 9.36 0.65 1.54 9.42 0.11 1.50 9.44 -0.44 1.46 9.38 -0.97 1.42 9.24 -1.48 1.37 9.04 -1.93 1.29 8.78 -2.30 1.21 8.49 -2.47 1.10 8.10 -2.17 1.04 7.39 -0.20 1.38 5.93 7.42 0.54 0.58 7.11 -0.03 -4.08 -4.61 -1.22 -5.36 -5.81 -1.80 -3.77 1.18 0.30 6.55 2.48 1.06 8.04 2.66 1.19 8.60 2.48 1.20 8.88 2.13 1.18 9.06 1.70 1.16 9.17 1.20 1.13 9.24 0.66 1.09 9.28 0.11 1.04 9.27 -0.45 1.00 9.21 -1.00 0.95 9.08 -1.51 0.90 8.86 -1.98 0.83 8.59 -2.35 0.75 8.29 -2.53 0.66 7.90 -2.22 0.64 7.16 -0.09 1.08 5.57 7.57 0.13 0.58 7.27 -0.11 -3.78 7.23 -0.55 -9.62 -3.09 -0.83 -6.60 -4.53 -1.38 -5.31 -5.79 -1.86 -3.66 1.52 0.16 6.42 2.62 0.79 7.97 2.74 0.88 8.53 2.53 0.88 8.78 2.16 0.85 8.93 1.71 0.81 9.01 1.20 0.77 9.06 0.65 0.71 9.09 0.09 0.66 9.07 -0.48 0.61 9.01 -1.03 0.56 8.87 -1.56 0.51 8.66 -2.03 0.45 8.38 -2.41 0.38 8.05 -2.60 0.31 7.61 -2.25 0.34 6.80 0.28 0.97 4.87 7.54 -0.19 0.54 7.69 -0.21 -2.56 7.24 -0.83 -8.68 4.13 -2.53 -12.00 -3.25 -1.09 -6.12 -3.68 -1.27 -5.55 -4.40 -1.48 -4.64 -5.54 -1.80 -3.13 1.67 0.07 5.84 2.70 0.58 7.64 2.78 0.63 8.30 2.55 0.61 8.57 2.17 0.57 8.72 1.71 0.53 8.79 1.19 0.47 8.84 0.63 0.41 8.88 0.06 0.35 8.87 -0.51 0.29 8.80 -1.07 0.24 8.65 -1.60 0.20 8.43 -2.09 0.15 8.13 -2.48 0.11 7.76 -2.66 0.08 7.27 -2.25 0.20 6.32 0.72 1.02 3.96 7.14 -0.26 0.40 8.11 -0.57 -1.19 6.94 -1.36 -6.08 5.83 -1.84 -11.39 -3.75 -1.24 -4.65 -4.15 -1.25 -3.87 -4.78 -1.42 -2.79 1.76 0.16 4.91 2.76 0.49 7.08 2.81 0.47 7.90 2.56 0.41 8.25 2.16 0.36 8.43 1.69 0.30 8.52 1.16 0.24 8.58 0.60 0.16 8.63 0.02 0.10 8.64 -0.55 0.04 8.57 -1.12 -0.00 8.42 -1.66 -0.03 8.19 -2.15 -0.05 7.87 -2.54 -0.05 7.46 -2.71 -0.01 6.87 -2.21 0.22 5.72 1.04 1.18 3.08 7.89 -0.73 -0.40 7.20 -0.54 -2.35 6.05 -1.67 -9.37 -3.48 -0.74 -4.34 -3.41 -0.67 -4.08 2.55 0.29 7.82 2.13 0.20 8.05 1.65 0.12 8.17 1.12 0.04 8.27 0.55 -0.04 8.34 -0.03 -0.11 8.36 -0.60 -0.17 8.30 -1.17 -0.19 8.15 -1.71 -0.20 7.93 -2.21 -0.18 7.61 -2.58 -0.12 7.14 -2.72 0.01 6.41 -2.12 0.37 5.01 6.54 -0.33 -0.76 6.60 -0.28 -1.25 1.61 -0.03 7.76 1.07 -0.13 7.89 0.50 -0.23 7.98 -0.08 -0.29 8.01 -0.66 -0.34 7.96 -1.22 -0.35 7.80 -1.75 -0.32 7.56 -2.23 -0.26 7.21 -2.60 -0.14 6.69 -2.67 0.10 5.81 4.52 0.27 -1.46 4.57 0.16 -1.98 0.44 -0.36 7.53 -0.13 -0.43 7.56 -0.70 -0.46 7.50 -1.24 -0.45 7.32 -1.76 -0.39 7.03 -2.23 -0.27 6.64 -2.54 -0.09 6.03 -2.54 0.28 4.98 2.70 0.51 -2.44 -0.71 -0.50 6.87 -1.25 -0.46 6.67 -1.74 -0.36 6.36 -2.16 -0.21 5.90 -2.41 0.06 5.19 1.73 0.72 -2.68 -1.17 -0.32 5.85 -1.62 -0.21 5.51 -1.97 -0.01 5.00 -0.95 7.51 -2.12 -0.63 7.94 -1.99 -0.24 7.19 -1.37 0.22 6.07 -0.58 -0.87 8.15 -2.05 -0.49 8.86 -2.19 -0.30 8.67 -2.00 -0.22 8.03 -1.58 -0.04 7.40 -1.12 0.11 6.83 -0.78 2.01 5.90 -1.47 2.53 6.69 -1.68 3.04 7.06 -1.86 -0.78 8.00 -1.98 -0.35 8.00 -2.26 -0.07 8.00 -2.14 0.01 8.00 -1.84 0.09 8.00 -1.54 0.14 8.00 -1.32 1.16 7.48 -1.58 1.65 7.92 -1.71 2.31 8.00 -1.79 2.98 7.65 -1.72 -0.07 7.00 -2.21 0.19 7.00 -2.00 0.92 7.00 -1.61 1.68 7.00 -1.56 2.58 7.00 -1.39 -4.82 -4.69 1.81 -6.22 -4.99 2.61 -7.24 -5.11 3.39 -7.69 -5.26 3.76 7.78 -3.17 -0.10 -8.23 -0.62 4.68 -3.97 -4.34 -1.02 -8.07 1.11 2.36 -8.93 0.62 2.60 -9.75 0.03 2.94 -8.26 -4.80 0.34 -5.56 -4.55 0.12 4.06 -2.75 -0.10 7.45 -3.16 0.39 10.23 -3.45 1.76 11.53 -3.33 2.41 -8.15 1.86 1.47 -9.04 1.51 1.55 -9.92 1.03 1.74 -9.95 -4.57 1.73 -6.99 -4.43 1.73 4.63 -2.41 1.05 8.72 -2.75 2.52 11.49 -2.89 3.73 12.81 -2.78 3.48 -8.06 2.46 0.44 -8.95 2.26 0.39 -12.31 -3.36 1.78 -7.17 -3.91 3.21 8.45 -2.16 3.84 11.64 -2.45 4.74 13.40 -2.20 4.05 -12.66 -2.76 1.59 -10.77 -3.90 3.42 -6.01 -3.24 4.30 7.05 -1.69 4.46 10.94 -2.11 5.31 13.37 -1.73 4.49 -12.02 -0.59 -0.92 -12.44 -2.22 1.13 -9.85 -3.63 4.11 -4.31 -2.67 4.78 9.38 -1.87 5.75 12.72 -1.57 5.05 13.83 -0.09 2.35 -10.17 -0.30 -1.68 -11.47 -1.66 0.27 -9.05 -3.21 3.80 -3.35 -2.39 4.36 7.58 -1.65 5.56 11.72 -1.47 5.09 13.35 0.19 2.27 -6.75 -0.17 -2.05 -8.57 -1.21 -0.84 -8.17 -2.51 2.04 6.78 -1.30 3.89 10.95 -0.95 3.58 12.08 0.60 0.99 10.12 1.16 -1.03 -5.06 -0.79 -1.54 8.20 -0.41 0.44 8.58 0.30 -0.57 7.54 0.72 -1.33 6.04 0.28 -1.42 -1.45 -2.53 -2.34 0.74 3.46 5.84 0.72 4.30 6.99 0.47 4.73 7.70 0.11 4.93 8.05 -0.29 5.00 8.14 -0.63 4.91 7.91 -0.85 4.60 7.28 4.31 -1.63 -1.19 -3.92 -2.28 -1.12 0.03 2.16 4.92 0.98 3.60 6.54 1.10 4.33 7.63 0.88 4.71 8.34 0.50 4.91 8.77 0.05 5.01 9.00 -0.43 5.03 9.06 -0.90 4.99 8.99 -1.31 4.85 8.71 -1.56 4.58 8.13 -1.53 4.05 7.07 4.97 -1.54 -0.45 -5.95 -1.06 -0.05 -0.15 2.02 5.28 1.25 3.37 6.77 1.49 4.02 7.75 1.35 4.35 8.44 1.00 4.54 8.90 0.55 4.64 9.17 0.05 4.68 9.33 -0.47 4.69 9.37 -1.00 4.65 9.34 -1.48 4.58 9.19 -1.88 4.43 8.89 -2.11 4.18 8.33 -1.97 3.70 7.29 -1.06 2.67 5.42 2.20 0.83 2.39 5.55 -0.69 0.50 -7.27 -1.06 -0.38 -6.62 -0.13 1.13 -0.72 1.61 5.31 1.46 3.07 6.89 1.87 3.62 7.77 1.80 3.90 8.41 1.51 4.06 8.86 1.09 4.15 9.16 0.60 4.19 9.35 0.07 4.19 9.46 -0.47 4.18 9.48 -1.02 4.15 9.46 -1.53 4.10 9.36 -2.00 4.01 9.17 -2.36 3.87 8.84 -2.47 3.62 8.23 -2.07 3.17 7.09 -0.19 2.13 4.89 5.47 0.79 1.38 7.60 -0.61 -0.44 -7.15 -1.51 -1.04 -7.94 -0.73 0.11 -3.27 0.59 4.22 1.39 2.65 6.87 2.16 3.20 7.75 2.21 3.41 8.33 1.98 3.54 8.76 1.62 3.60 9.07 1.15 3.64 9.28 0.64 3.64 9.41 0.09 3.63 9.48 -0.46 3.61 9.49 -1.02 3.58 9.47 -1.55 3.54 9.38 -2.04 3.47 9.26 -2.46 3.38 9.05 -2.70 3.23 8.66 -2.54 2.99 7.89 -1.43 2.55 6.42 4.00 1.83 3.09 7.71 -0.37 -0.45 -7.54 -1.63 -1.04 -7.96 -0.45 0.91 0.36 1.74 6.33 2.19 2.76 7.66 2.51 2.96 8.25 2.40 3.03 8.65 2.09 3.06 8.95 1.67 3.08 9.17 1.19 3.07 9.32 0.66 3.06 9.41 0.10 3.04 9.46 -0.45 3.01 9.46 -1.01 2.98 9.42 -1.55 2.95 9.35 -2.06 2.89 9.26 -2.50 2.82 9.11 -2.80 2.72 8.84 -2.78 2.57 8.30 -2.02 2.35 7.20 1.81 1.99 4.79 7.83 -0.11 -0.31 9.36 -2.96 -4.28 -7.83 -1.97 -1.03 -6.96 -0.27 2.31 1.60 2.03 7.26 2.59 2.50 8.16 2.72 2.56 8.57 2.51 2.56 8.85 2.15 2.54 9.06 1.71 2.53 9.21 1.21 2.50 9.32 0.67 2.48 9.38 0.11 2.44 9.41 -0.44 2.42 9.40 -1.01 2.39 9.37 -1.55 2.35 9.30 -2.07 2.30 9.22 -2.52 2.24 9.11 -2.85 2.15 8.90 -2.90 2.04 8.49 -2.32 1.92 7.63 0.55 1.82 5.76 7.95 0.12 -0.16 8.40 -3.14 -5.79 -8.07 -2.41 -0.95 -3.33 -0.40 4.31 2.17 1.86 7.81 2.82 2.10 8.48 2.84 2.09 8.78 2.57 2.05 8.97 2.18 2.01 9.11 1.72 1.98 9.21 1.22 1.94 9.29 0.67 1.91 9.33 0.12 1.86 9.35 -0.44 1.83 9.33 -1.01 1.80 9.30 -1.56 1.76 9.23 -2.08 1.71 9.15 -2.54 1.66 9.06 -2.87 1.58 8.89 -2.97 1.49 8.56 -2.51 1.41 7.86 -0.10 1.45 6.25 8.15 0.16 -0.12 7.76 -2.88 -7.75 -4.58 -1.51 -4.61 -8.26 -2.89 -0.89 2.49 1.52 8.17 2.96 1.66 8.69 2.91 1.62 8.91 2.61 1.57 9.03 2.20 1.51 9.11 1.73 1.47 9.18 1.22 1.41 9.23 0.67 1.37 9.26 0.11 1.33 9.27 -0.45 1.29 9.25 -1.02 1.25 9.21 -1.58 1.21 9.14 -2.10 1.16 9.07 -2.56 1.10 8.99 -2.90 1.02 8.85 -3.02 0.94 8.57 -2.65 0.88 7.97 8.38 -0.03 -0.08 7.56 -2.15 -9.57 -4.63 -1.72 -5.41 -6.71 -2.93 -3.29 2.68 1.13 8.37 3.03 1.23 8.81 2.94 1.18 8.97 2.63 1.13 9.05 2.21 1.07 9.09 1.74 1.02 9.12 1.22 0.96 9.15 0.67 0.91 9.16 0.10 0.86 9.16 -0.47 0.81 9.14 -1.04 0.76 9.11 -1.60 0.72 9.05 -2.13 0.66 8.98 -2.59 0.60 8.89 -2.94 0.52 8.77 -3.08 0.44 8.52 -2.78 0.39 7.99 8.53 -0.36 0.23 7.70 -1.55 -10.34 4.37 -4.09 -11.70 -4.75 -1.82 -5.92 -6.72 -3.10 -3.84 2.77 0.72 8.43 3.04 0.83 8.82 2.92 0.80 8.95 2.61 0.76 8.99 2.19 0.71 9.00 1.72 0.65 9.01 1.20 0.59 9.02 0.65 0.53 9.03 0.08 0.47 9.03 -0.50 0.41 9.01 -1.08 0.36 8.98 -1.64 0.31 8.92 -2.17 0.25 8.86 -2.63 0.18 8.78 -2.99 0.10 8.66 -3.15 0.02 8.43 -2.89 -0.04 7.93 8.61 -0.76 0.59 7.78 -1.47 -10.21 6.71 -2.37 -12.36 5.94 -3.07 -12.78 5.15 -3.60 -12.72 4.38 -3.94 -12.40 -5.04 -1.91 -6.02 -6.78 -3.04 -4.35 2.81 0.36 8.32 3.02 0.47 8.71 2.89 0.47 8.83 2.57 0.44 8.86 2.16 0.40 8.86 1.68 0.35 8.85 1.16 0.29 8.86 0.61 0.23 8.87 0.04 0.17 8.87 -0.54 0.11 8.86 -1.13 0.05 8.83 -1.69 -0.00 8.78 -2.23 -0.05 8.72 -2.70 -0.12 8.64 -3.07 -0.19 8.52 -3.24 -0.27 8.29 -2.99 -0.33 7.79 8.62 -1.16 0.99 7.95 -1.90 -9.09 6.79 -2.39 -12.18 5.96 -2.99 -12.80 5.17 -3.40 -12.87 4.41 -3.54 -12.56 -5.48 -2.05 -5.52 -6.05 -2.27 -5.37 -6.88 -2.90 -4.21 2.86 0.06 8.04 3.01 0.18 8.48 2.85 0.19 8.62 2.53 0.18 8.65 2.11 0.16 8.65 1.63 0.11 8.65 1.10 0.05 8.66 0.54 -0.01 8.67 -0.03 -0.08 8.68 -0.61 -0.14 8.67 -1.19 -0.19 8.64 -1.76 -0.23 8.59 -2.30 -0.28 8.53 -2.77 -0.33 8.45 -3.14 -0.39 8.32 -3.32 -0.46 8.08 -3.06 -0.49 7.54 8.39 -1.46 1.36 7.86 -1.87 -5.44 7.01 -2.35 -10.80 6.09 -2.79 -12.12 4.75 -2.90 -11.72 -5.50 -2.19 -4.13 -5.80 -2.07 -4.66 -6.19 -2.19 -4.50 -6.74 -2.59 -3.59 2.97 -0.14 7.59 3.04 -0.06 8.12 2.85 -0.05 8.30 2.50 -0.05 8.36 2.05 -0.08 8.38 1.56 -0.12 8.39 1.03 -0.18 8.41 0.47 -0.24 8.44 -0.10 -0.30 8.44 -0.67 -0.36 8.44 -1.26 -0.41 8.41 -1.82 -0.44 8.36 -2.36 -0.48 8.30 -2.82 -0.51 8.20 -3.19 -0.54 8.03 -3.36 -0.57 7.73 -3.06 -0.55 7.11 -0.93 -0.19 5.36 7.79 -1.58 1.33 9.05 -1.40 -1.83 7.21 -2.06 -5.52 6.49 -2.64 -8.64 5.96 -2.57 -9.49 6.06 -2.08 -6.54 -5.09 -1.16 -3.32 -5.26 -1.28 -3.91 -5.30 -1.39 -4.02 -5.53 -1.86 -3.38 3.14 -0.23 6.98 3.13 -0.23 7.62 2.87 -0.25 7.88 2.48 -0.28 7.99 2.01 -0.32 8.05 1.51 -0.37 8.09 0.97 -0.43 8.12 0.41 -0.49 8.15 -0.16 -0.54 8.16 -0.74 -0.59 8.15 -1.32 -0.63 8.12 -1.87 -0.66 8.06 -2.40 -0.68 7.97 -2.86 -0.69 7.84 -3.21 -0.68 7.61 -3.34 -0.64 7.22 -2.97 -0.51 6.42 6.64 -1.24 0.78 8.59 -1.46 -0.23 8.01 -0.99 -1.72 7.06 -0.09 -3.16 6.89 0.75 -2.76 3.22 -0.36 7.02 2.90 -0.44 7.37 2.48 -0.51 7.55 1.99 -0.57 7.65 1.47 -0.62 7.72 0.92 -0.68 7.77 0.35 -0.74 7.80 -0.22 -0.79 7.81 -0.80 -0.84 7.79 -1.37 -0.87 7.74 -1.92 -0.88 7.65 -2.44 -0.88 7.53 -2.87 -0.86 7.35 -3.18 -0.80 7.04 -3.26 -0.65 6.50 -2.80 -0.35 5.49 6.53 -0.77 -0.66 5.01 0.55 -2.39 4.66 1.37 -2.59 4.83 2.42 -2.07 2.93 -0.61 6.80 2.48 -0.73 7.05 1.97 -0.81 7.19 1.44 -0.88 7.27 0.89 -0.93 7.32 0.31 -0.99 7.35 -0.26 -1.03 7.35 -0.84 -1.06 7.31 -1.40 -1.09 7.24 -1.95 -1.09 7.13 -2.45 -1.07 6.97 -2.86 -1.00 6.72 -3.13 -0.87 6.32 -3.11 -0.60 5.62 -2.52 -0.08 4.40 3.97 0.45 -1.41 3.17 1.18 -2.67 3.25 1.93 -2.55 -0.28 -1.20 6.76 -0.85 -1.21 6.70 -1.42 -1.22 6.60 -1.95 -1.20 6.46 -2.43 -1.16 6.25 -2.80 -1.06 5.95 -2.99 -0.83 5.45 -2.85 -0.40 4.58 2.72 1.37 -1.44 -2.32 -1.11 5.42 -2.63 -0.94 5.04 -2.70 -0.58 4.39 0.12 6.99 -1.66 0.67 5.88 -0.88 -0.47 7.25 -1.64 -0.18 8.01 -1.94 0.16 7.82 -1.82 0.32 6.90 -1.35 0.49 5.96 -0.76 -0.25 8.00 -1.97 0.21 8.00 -2.10 0.37 8.00 -1.93 0.44 7.66 -1.61 1.27 6.87 -1.74 1.83 7.41 -1.82 2.48 7.42 -1.78 0.32 7.00 -2.16 1.32 7.00 -1.76 2.29 7.00 -1.59 -7.90 -4.81 5.18 -9.43 -4.74 6.61 -10.31 -3.59 5.43 -10.23 -4.82 7.58 -10.82 -3.96 6.33 -10.41 -4.90 8.15 -5.17 -6.87 9.31 10.67 -4.55 8.17 -5.32 -1.90 6.20 -5.97 -2.21 6.35 -7.49 -2.57 5.92 -10.97 -4.33 6.87 -10.16 -4.90 8.49 -4.77 -6.59 9.71 10.87 -4.60 9.00 10.96 -3.33 5.64 -5.24 -1.40 6.32 -5.68 -1.99 6.71 -6.25 -2.43 6.83 -6.96 -2.74 6.73 -7.74 -2.99 6.46 -10.89 -4.63 7.23 -9.59 -4.81 8.65 10.74 -4.50 9.46 11.62 -4.18 8.42 11.49 -3.62 6.96 9.10 -2.47 6.96 -5.72 -1.14 6.40 -6.10 -1.87 6.87 -6.58 -2.47 7.07 -7.23 -2.93 7.07 -7.97 -3.27 6.87 -8.75 -3.55 6.55 -9.49 -3.78 6.19 -10.95 -4.66 6.16 -10.60 -4.80 7.50 -8.74 -4.70 8.63 10.47 -4.27 9.66 11.50 -4.21 8.99 11.69 -3.84 7.83 8.66 -2.51 7.94 7.95 -2.19 8.04 7.34 -1.77 7.83 -6.27 -0.71 6.09 -6.59 -1.56 6.69 -7.01 -2.31 7.05 -7.56 -2.91 7.19 -8.22 -3.38 7.13 -8.96 -3.75 6.96 -9.69 -4.06 6.70 -10.76 -4.65 6.28 -10.86 -4.92 6.61 -7.59 -4.52 8.45 10.16 -4.00 9.66 11.25 -4.08 9.30 11.68 -3.92 8.40 -6.34 0.40 4.78 -6.84 -0.28 5.48 -7.21 -1.08 6.17 -7.56 -1.93 6.71 -7.99 -2.67 7.05 -8.55 -3.27 7.18 -10.40 -4.50 6.88 -10.75 -4.82 6.78 -10.58 -4.97 7.01 -9.36 -4.70 7.75 -6.16 -4.19 8.10 2.32 -3.37 7.92 7.57 -3.55 8.73 9.82 -3.69 9.52 10.93 -3.83 9.43 11.52 -3.80 8.79 11.15 -3.29 8.18 8.68 -1.79 8.20 8.20 -1.14 7.77 -6.67 0.64 4.18 -7.30 0.08 4.77 -7.83 -0.62 5.41 -8.23 -1.41 6.05 -8.59 -2.21 6.58 -9.01 -2.92 6.95 -9.50 -3.51 7.15 -10.40 -4.44 7.23 -10.55 -4.77 7.24 -10.03 -4.79 7.44 -8.32 -4.35 7.91 -4.44 -3.45 7.71 2.71 -2.26 7.12 7.13 -2.93 8.39 9.36 -3.27 9.40 10.51 -3.45 9.56 11.24 -3.50 9.13 11.27 -3.01 8.47 9.70 -1.84 8.13 9.19 -1.25 7.79 8.71 -0.56 7.27 8.18 0.04 6.58 -6.93 0.84 3.59 -7.68 0.38 4.03 -8.32 -0.20 4.57 -8.86 -0.89 5.19 -9.27 -1.63 5.82 -9.62 -2.38 6.37 -9.95 -3.06 6.82 -10.21 -3.67 7.17 -10.36 -4.21 7.41 -10.16 -4.52 7.65 -9.18 -4.35 8.01 -7.01 -3.65 8.34 -2.50 -2.18 7.42 2.41 -1.37 6.80 6.21 -2.10 8.36 8.62 -2.71 9.52 9.97 -3.03 9.79 10.92 -3.12 9.40 11.41 -2.88 8.89 11.47 -2.51 8.49 11.21 -2.11 8.19 8.61 0.46 5.94 -7.13 1.09 2.97 -7.96 0.69 3.31 -8.73 0.20 3.73 -9.39 -0.37 4.27 -9.90 -1.03 4.89 -10.28 -1.74 5.55 -10.50 -2.50 6.22 -10.52 -3.24 6.87 -10.33 -3.88 7.45 -9.71 -4.16 7.98 -8.17 -3.77 8.62 -5.45 -2.65 8.82 -1.12 -1.02 7.58 1.73 -0.66 7.14 4.66 -1.13 8.68 7.53 -2.09 9.81 9.36 -2.66 10.08 10.66 -2.77 9.59 11.48 -2.44 8.90 11.81 -1.93 8.29 11.72 -1.43 7.78 11.37 -0.95 7.37 10.35 0.01 6.47 9.73 0.45 5.89 9.05 0.82 5.28 7.46 1.33 4.16 -7.30 1.52 2.26 -8.17 1.18 2.49 -9.01 0.74 2.83 -9.79 0.19 3.34 -10.42 -0.44 3.96 -10.86 -1.15 4.67 -11.04 -1.94 5.49 -10.86 -2.78 6.45 -10.30 -3.54 7.41 -9.17 -3.78 8.29 -7.03 -3.17 9.17 -3.67 -1.59 9.17 -0.43 -0.45 8.00 1.18 -0.29 7.63 3.11 -0.52 8.91 6.13 -1.52 10.01 8.70 -2.41 10.27 10.45 -2.54 9.70 11.64 -2.07 8.79 12.24 -1.41 7.96 12.30 -0.80 7.30 12.02 -0.29 6.77 10.24 0.84 5.15 9.47 1.11 4.62 8.63 1.34 4.20 7.76 1.55 3.91 6.88 1.71 3.67 -7.39 1.98 1.50 -8.31 1.75 1.63 -9.21 1.40 1.88 -10.06 0.91 2.32 -10.80 0.24 2.94 -11.35 -0.56 3.75 -11.56 -1.45 4.74 -11.21 -2.41 5.97 -10.21 -3.27 7.40 -8.45 -3.47 8.65 -5.69 -2.56 9.58 -2.12 -1.02 9.27 -0.07 -0.36 8.26 0.83 -0.23 7.92 2.00 -0.39 8.85 4.58 -1.11 10.07 7.88 -2.23 10.32 10.17 -2.44 9.75 11.80 -1.84 8.64 12.72 -1.00 7.57 12.93 -0.28 6.72 10.65 1.19 4.45 9.78 1.42 4.03 8.89 1.61 3.73 7.99 1.75 3.57 7.08 1.87 3.50 -7.35 2.40 0.62 -8.30 2.27 0.64 -9.25 2.04 0.79 -11.73 0.21 2.63 -12.03 -0.90 3.84 -11.60 -2.08 5.43 -10.09 -3.10 7.38 -7.57 -3.21 9.04 -4.20 -2.06 9.77 -1.07 -0.95 9.23 0.15 -0.49 8.36 0.60 -0.35 8.04 1.26 -0.48 8.67 3.10 -0.97 9.94 6.60 -2.01 10.35 9.62 -2.45 9.81 11.85 -1.76 8.51 13.21 -0.73 7.09 13.62 0.12 5.82 8.99 1.96 3.02 8.08 2.04 2.99 7.17 2.08 3.06 -8.02 2.58 -0.39 -11.00 1.81 0.29 -11.92 1.07 1.19 -12.46 -0.15 2.61 -12.06 -1.70 4.67 -10.05 -3.01 7.30 -6.70 -3.03 9.29 -2.94 -1.91 9.76 -0.48 -1.14 9.11 0.28 -0.76 8.32 0.45 -0.61 8.00 0.73 -0.70 8.47 1.91 -1.06 9.64 5.01 -1.82 10.39 8.78 -2.46 9.86 11.76 -1.82 8.39 13.67 -0.56 6.51 7.99 2.42 1.90 7.12 2.37 2.17 -7.53 2.68 -1.22 -10.44 2.19 -1.12 -12.59 0.75 0.89 -12.61 -1.08 3.35 -10.25