# vtk DataFile Version 2.0
VTK from Matlab
ASCII
DATASET STRUCTURED_GRID
DIMENSIONS 16151 1 1
POINTS 16151 float
21.00 17.00 9.00 20.00 18.00 9.00 18.00 20.00 9.00 22.00 20.00 9.00 17.00 21.00 9.00 21.00 21.00 9.00 22.00 21.00 9.00 23.00 21.00 9.00 20.00 22.00 9.00 21.00 22.00 9.00 22.00 22.00 9.00 23.00 22.00 9.00 24.00 22.00 9.00 21.00 23.00 9.00 22.00 23.00 9.00 23.00 23.00 9.00 22.00 24.00 9.00 18.00 16.00 10.00 19.00 16.00 10.00 20.00 16.00 10.00 21.00 16.00 10.00 17.00 17.00 10.00 18.00 17.00 10.00 19.00 17.00 10.00 20.00 17.00 10.00 21.00 17.00 10.00 22.00 17.00 10.00 24.00 17.00 10.00 16.00 18.00 10.00 17.00 18.00 10.00 18.00 18.00 10.00 19.00 18.00 10.00 20.00 18.00 10.00 21.00 18.00 10.00 22.00 18.00 10.00 23.00 18.00 10.00 24.00 18.00 10.00 25.00 18.00 10.00 16.00 19.00 10.00 17.00 19.00 10.00 18.00 19.00 10.00 19.00 19.00 10.00 20.00 19.00 10.00 21.00 19.00 10.00 22.00 19.00 10.00 23.00 19.00 10.00 16.00 20.00 10.00 17.00 20.00 10.00 18.00 20.00 10.00 19.00 20.00 10.00 20.00 20.00 10.00 21.00 20.00 10.00 22.00 20.00 10.00 23.00 20.00 10.00 24.00 20.00 10.00 25.00 20.00 10.00 16.00 21.00 10.00 17.00 21.00 10.00 18.00 21.00 10.00 19.00 21.00 10.00 20.00 21.00 10.00 21.00 21.00 10.00 22.00 21.00 10.00 23.00 21.00 10.00 24.00 21.00 10.00 25.00 21.00 10.00 26.00 21.00 10.00 17.00 22.00 10.00 18.00 22.00 10.00 19.00 22.00 10.00 20.00 22.00 10.00 21.00 22.00 10.00 22.00 22.00 10.00 23.00 22.00 10.00 24.00 22.00 10.00 25.00 22.00 10.00 26.00 22.00 10.00 18.00 23.00 10.00 19.00 23.00 10.00 20.00 23.00 10.00 21.00 23.00 10.00 22.00 23.00 10.00 23.00 23.00 10.00 24.00 23.00 10.00 25.00 23.00 10.00 26.00 23.00 10.00 17.00 24.00 10.00 18.00 24.00 10.00 20.00 24.00 10.00 21.00 24.00 10.00 22.00 24.00 10.00 23.00 24.00 10.00 24.00 24.00 10.00 18.00 25.00 10.00 20.00 25.00 10.00 21.00 25.00 10.00 22.00 25.00 10.00 23.00 25.00 10.00 21.00 26.00 10.00 22.00 26.00 10.00 23.00 26.00 10.00 18.00 14.00 11.00 20.00 14.00 11.00 21.00 14.00 11.00 16.00 15.00 11.00 17.00 15.00 11.00 18.00 15.00 11.00 19.00 15.00 11.00 20.00 15.00 11.00 21.00 15.00 11.00 22.00 15.00 11.00 15.00 16.00 11.00 16.00 16.00 11.00 17.00 16.00 11.00 18.00 16.00 11.00 19.00 16.00 11.00 20.00 16.00 11.00 21.00 16.00 11.00 22.00 16.00 11.00 23.00 16.00 11.00 24.00 16.00 11.00 25.00 16.00 11.00 26.00 16.00 11.00 15.00 17.00 11.00 16.00 17.00 11.00 17.00 17.00 11.00 18.00 17.00 11.00 19.00 17.00 11.00 20.00 17.00 11.00 21.00 17.00 11.00 22.00 17.00 11.00 23.00 17.00 11.00 24.00 17.00 11.00 25.00 17.00 11.00 26.00 17.00 11.00 14.00 18.00 11.00 15.00 18.00 11.00 16.00 18.00 11.00 17.00 18.00 11.00 18.00 18.00 11.00 19.00 18.00 11.00 20.00 18.00 11.00 21.00 18.00 11.00 22.00 18.00 11.00 23.00 18.00 11.00 24.00 18.00 11.00 25.00 18.00 11.00 26.00 18.00 11.00 27.00 18.00 11.00 15.00 19.00 11.00 16.00 19.00 11.00 17.00 19.00 11.00 18.00 19.00 11.00 19.00 19.00 11.00 20.00 19.00 11.00 21.00 19.00 11.00 22.00 19.00 11.00 23.00 19.00 11.00 24.00 19.00 11.00 25.00 19.00 11.00 26.00 19.00 11.00 27.00 19.00 11.00 14.00 20.00 11.00 15.00 20.00 11.00 16.00 20.00 11.00 17.00 20.00 11.00 18.00 20.00 11.00 19.00 20.00 11.00 20.00 20.00 11.00 21.00 20.00 11.00 22.00 20.00 11.00 23.00 20.00 11.00 26.00 20.00 11.00 27.00 20.00 11.00 28.00 20.00 11.00 14.00 21.00 11.00 15.00 21.00 11.00 16.00 21.00 11.00 17.00 21.00 11.00 18.00 21.00 11.00 19.00 21.00 11.00 20.00 21.00 11.00 21.00 21.00 11.00 22.00 21.00 11.00 23.00 21.00 11.00 24.00 21.00 11.00 25.00 21.00 11.00 26.00 21.00 11.00 27.00 21.00 11.00 28.00 21.00 11.00 15.00 22.00 11.00 16.00 22.00 11.00 17.00 22.00 11.00 18.00 22.00 11.00 19.00 22.00 11.00 20.00 22.00 11.00 21.00 22.00 11.00 22.00 22.00 11.00 23.00 22.00 11.00 24.00 22.00 11.00 25.00 22.00 11.00 26.00 22.00 11.00 27.00 22.00 11.00 28.00 22.00 11.00 16.00 23.00 11.00 17.00 23.00 11.00 18.00 23.00 11.00 19.00 23.00 11.00 20.00 23.00 11.00 21.00 23.00 11.00 22.00 23.00 11.00 23.00 23.00 11.00 24.00 23.00 11.00 25.00 23.00 11.00 26.00 23.00 11.00 27.00 23.00 11.00 28.00 23.00 11.00 16.00 24.00 11.00 17.00 24.00 11.00 18.00 24.00 11.00 19.00 24.00 11.00 21.00 24.00 11.00 22.00 24.00 11.00 23.00 24.00 11.00 24.00 24.00 11.00 25.00 24.00 11.00 26.00 24.00 11.00 27.00 24.00 11.00 16.00 25.00 11.00 17.00 25.00 11.00 18.00 25.00 11.00 19.00 25.00 11.00 21.00 25.00 11.00 22.00 25.00 11.00 23.00 25.00 11.00 24.00 25.00 11.00 25.00 25.00 11.00 26.00 25.00 11.00 27.00 25.00 11.00 16.00 26.00 11.00 17.00 26.00 11.00 18.00 26.00 11.00 19.00 26.00 11.00 20.00 26.00 11.00 21.00 26.00 11.00 22.00 26.00 11.00 23.00 26.00 11.00 24.00 26.00 11.00 25.00 26.00 11.00 26.00 26.00 11.00 27.00 26.00 11.00 18.00 27.00 11.00 19.00 27.00 11.00 20.00 27.00 11.00 21.00 27.00 11.00 22.00 27.00 11.00 23.00 27.00 11.00 24.00 27.00 11.00 25.00 27.00 11.00 26.00 27.00 11.00 20.00 28.00 11.00 21.00 28.00 11.00 22.00 28.00 11.00 23.00 28.00 11.00 17.00 12.00 12.00 18.00 12.00 12.00 17.00 13.00 12.00 18.00 13.00 12.00 19.00 13.00 12.00 20.00 13.00 12.00 21.00 13.00 12.00 22.00 13.00 12.00 17.00 14.00 12.00 18.00 14.00 12.00 19.00 14.00 12.00 20.00 14.00 12.00 21.00 14.00 12.00 22.00 14.00 12.00 23.00 14.00 12.00 25.00 14.00 12.00 26.00 14.00 12.00 16.00 15.00 12.00 17.00 15.00 12.00 18.00 15.00 12.00 19.00 15.00 12.00 20.00 15.00 12.00 21.00 15.00 12.00 22.00 15.00 12.00 23.00 15.00 12.00 24.00 15.00 12.00 25.00 15.00 12.00 26.00 15.00 12.00 27.00 15.00 12.00 15.00 16.00 12.00 16.00 16.00 12.00 17.00 16.00 12.00 18.00 16.00 12.00 19.00 16.00 12.00 20.00 16.00 12.00 21.00 16.00 12.00 22.00 16.00 12.00 23.00 16.00 12.00 24.00 16.00 12.00 25.00 16.00 12.00 26.00 16.00 12.00 27.00 16.00 12.00 12.00 17.00 12.00 13.00 17.00 12.00 14.00 17.00 12.00 15.00 17.00 12.00 16.00 17.00 12.00 17.00 17.00 12.00 18.00 17.00 12.00 19.00 17.00 12.00 20.00 17.00 12.00 21.00 17.00 12.00 22.00 17.00 12.00 23.00 17.00 12.00 24.00 17.00 12.00 25.00 17.00 12.00 26.00 17.00 12.00 27.00 17.00 12.00 28.00 17.00 12.00 12.00 18.00 12.00 13.00 18.00 12.00 14.00 18.00 12.00 15.00 18.00 12.00 16.00 18.00 12.00 17.00 18.00 12.00 18.00 18.00 12.00 19.00 18.00 12.00 20.00 18.00 12.00 21.00 18.00 12.00 22.00 18.00 12.00 23.00 18.00 12.00 24.00 18.00 12.00 25.00 18.00 12.00 26.00 18.00 12.00 27.00 18.00 12.00 28.00 18.00 12.00 13.00 19.00 12.00 14.00 19.00 12.00 15.00 19.00 12.00 16.00 19.00 12.00 17.00 19.00 12.00 18.00 19.00 12.00 19.00 19.00 12.00 20.00 19.00 12.00 21.00 19.00 12.00 22.00 19.00 12.00 23.00 19.00 12.00 24.00 19.00 12.00 25.00 19.00 12.00 26.00 19.00 12.00 27.00 19.00 12.00 28.00 19.00 12.00 29.00 19.00 12.00 13.00 20.00 12.00 14.00 20.00 12.00 15.00 20.00 12.00 16.00 20.00 12.00 17.00 20.00 12.00 18.00 20.00 12.00 19.00 20.00 12.00 20.00 20.00 12.00 21.00 20.00 12.00 22.00 20.00 12.00 23.00 20.00 12.00 24.00 20.00 12.00 25.00 20.00 12.00 26.00 20.00 12.00 27.00 20.00 12.00 28.00 20.00 12.00 29.00 20.00 12.00 13.00 21.00 12.00 14.00 21.00 12.00 15.00 21.00 12.00 16.00 21.00 12.00 17.00 21.00 12.00 18.00 21.00 12.00 19.00 21.00 12.00 20.00 21.00 12.00 21.00 21.00 12.00 22.00 21.00 12.00 23.00 21.00 12.00 24.00 21.00 12.00 25.00 21.00 12.00 26.00 21.00 12.00 27.00 21.00 12.00 28.00 21.00 12.00 29.00 21.00 12.00 13.00 22.00 12.00 14.00 22.00 12.00 15.00 22.00 12.00 16.00 22.00 12.00 17.00 22.00 12.00 18.00 22.00 12.00 19.00 22.00 12.00 20.00 22.00 12.00 21.00 22.00 12.00 22.00 22.00 12.00 23.00 22.00 12.00 24.00 22.00 12.00 25.00 22.00 12.00 26.00 22.00 12.00 27.00 22.00 12.00 28.00 22.00 12.00 29.00 22.00 12.00 14.00 23.00 12.00 15.00 23.00 12.00 16.00 23.00 12.00 17.00 23.00 12.00 18.00 23.00 12.00 19.00 23.00 12.00 20.00 23.00 12.00 21.00 23.00 12.00 22.00 23.00 12.00 23.00 23.00 12.00 24.00 23.00 12.00 25.00 23.00 12.00 26.00 23.00 12.00 27.00 23.00 12.00 28.00 23.00 12.00 29.00 23.00 12.00 15.00 24.00 12.00 16.00 24.00 12.00 17.00 24.00 12.00 18.00 24.00 12.00 19.00 24.00 12.00 20.00 24.00 12.00 21.00 24.00 12.00 22.00 24.00 12.00 23.00 24.00 12.00 24.00 24.00 12.00 25.00 24.00 12.00 26.00 24.00 12.00 27.00 24.00 12.00 28.00 24.00 12.00 29.00 24.00 12.00 14.00 25.00 12.00 15.00 25.00 12.00 16.00 25.00 12.00 17.00 25.00 12.00 18.00 25.00 12.00 19.00 25.00 12.00 20.00 25.00 12.00 21.00 25.00 12.00 22.00 25.00 12.00 23.00 25.00 12.00 24.00 25.00 12.00 25.00 25.00 12.00 26.00 25.00 12.00 27.00 25.00 12.00 28.00 25.00 12.00 29.00 25.00 12.00 14.00 26.00 12.00 15.00 26.00 12.00 16.00 26.00 12.00 17.00 26.00 12.00 18.00 26.00 12.00 19.00 26.00 12.00 20.00 26.00 12.00 21.00 26.00 12.00 22.00 26.00 12.00 23.00 26.00 12.00 24.00 26.00 12.00 25.00 26.00 12.00 26.00 26.00 12.00 27.00 26.00 12.00 28.00 26.00 12.00 15.00 27.00 12.00 16.00 27.00 12.00 17.00 27.00 12.00 18.00 27.00 12.00 19.00 27.00 12.00 20.00 27.00 12.00 21.00 27.00 12.00 22.00 27.00 12.00 23.00 27.00 12.00 24.00 27.00 12.00 25.00 27.00 12.00 26.00 27.00 12.00 27.00 27.00 12.00 28.00 27.00 12.00 17.00 28.00 12.00 18.00 28.00 12.00 19.00 28.00 12.00 20.00 28.00 12.00 21.00 28.00 12.00 22.00 28.00 12.00 23.00 28.00 12.00 24.00 28.00 12.00 25.00 28.00 12.00 26.00 28.00 12.00 27.00 28.00 12.00 19.00 29.00 12.00 20.00 29.00 12.00 21.00 29.00 12.00 22.00 29.00 12.00 23.00 29.00 12.00 24.00 29.00 12.00 25.00 29.00 12.00 17.00 12.00 13.00 18.00 12.00 13.00 19.00 12.00 13.00 20.00 12.00 13.00 21.00 12.00 13.00 22.00 12.00 13.00 17.00 13.00 13.00 18.00 13.00 13.00 19.00 13.00 13.00 20.00 13.00 13.00 21.00 13.00 13.00 22.00 13.00 13.00 23.00 13.00 13.00 24.00 13.00 13.00 25.00 13.00 13.00 26.00 13.00 13.00 16.00 14.00 13.00 17.00 14.00 13.00 18.00 14.00 13.00 19.00 14.00 13.00 20.00 14.00 13.00 21.00 14.00 13.00 22.00 14.00 13.00 23.00 14.00 13.00 24.00 14.00 13.00 25.00 14.00 13.00 26.00 14.00 13.00 27.00 14.00 13.00 15.00 15.00 13.00 16.00 15.00 13.00 17.00 15.00 13.00 18.00 15.00 13.00 19.00 15.00 13.00 20.00 15.00 13.00 21.00 15.00 13.00 22.00 15.00 13.00 23.00 15.00 13.00 24.00 15.00 13.00 25.00 15.00 13.00 26.00 15.00 13.00 27.00 15.00 13.00 28.00 15.00 13.00 14.00 16.00 13.00 15.00 16.00 13.00 16.00 16.00 13.00 17.00 16.00 13.00 18.00 16.00 13.00 19.00 16.00 13.00 20.0
[...]
POINT_DATA 16151
VECTORS vector_field float
-0.85 -2.58 -1.58 -0.78 -2.34 -2.00 -2.34 -0.77 -2.00 -1.28 -0.47 -2.70 -2.58 -0.85 -1.58 -1.18 -1.18 -2.72 -1.57 -1.30 -2.71 -1.33 -1.39 -2.60 -0.47 -1.28 -2.70 -1.30 -1.57 -2.71 -1.83 -1.83 -2.68 -1.61 -1.87 -2.61 -1.15 -1.83 -2.28 -1.39 -1.33 -2.60 -1.87 -1.61 -2.61 -1.71 -1.71 -2.48 -1.83 -1.15 -2.28 -2.73 -1.70 -1.37 -2.78 -2.67 -2.01 -0.88 -2.17 -2.13 -0.76 -2.06 -2.08 -1.95 -1.95 -1.79 -2.74 -1.93 -1.91 -1.54 -1.88 -2.48 -0.75 -2.33 -2.80 -0.91 -2.61 -2.57 -1.17 -2.94 -2.17 -0.71 -1.96 -2.17 -1.70 -2.73 -1.37 -1.93 -2.74 -1.91 -1.29 -1.29 -2.99 -1.40 -1.29 -3.10 -0.99 -2.56 -3.03 -0.93 -2.61 -2.59 -1.10 -0.73 -3.22 -0.89 -0.01 -3.23 -0.98 -1.26 -3.01 -0.65 -1.90 -2.43 -2.68 -2.78 -2.01 -1.88 -1.54 -2.47 -1.29 -1.41 -3.10 -1.52 -1.54 -3.15 0.02 -0.15 -3.47 -0.61 0.41 -3.66 -1.15 0.42 -3.67 -1.42 0.31 -3.51 -2.17 -0.88 -2.13 -2.33 -0.74 -2.80 -2.57 -0.97 -3.03 -0.15 0.02 -3.46 -0.31 -0.31 -3.69 -0.84 -0.45 -3.69 -1.44 -0.48 -3.69 -1.69 -0.57 -3.62 -2.11 -0.64 -3.01 -2.59 -0.68 -1.71 -2.06 -0.76 -2.08 -2.61 -0.91 -2.57 -2.61 -0.92 -2.60 0.41 -0.61 -3.66 -0.45 -0.84 -3.69 -1.21 -1.21 -3.71 -1.72 -1.35 -3.71 -1.91 -1.42 -3.67 -1.93 -1.61 -3.28 -1.60 -1.71 -2.90 -1.52 -1.51 -2.66 -2.94 -1.17 -2.17 -0.73 -1.11 -3.22 0.42 -1.15 -3.67 -0.48 -1.44 -3.69 -1.35 -1.72 -3.71 -2.03 -2.03 -3.71 -2.24 -2.18 -3.70 -1.84 -2.22 -3.42 -1.49 -2.18 -3.07 -1.23 -1.52 -2.56 -0.01 -0.89 -3.23 0.31 -1.42 -3.51 -0.57 -1.69 -3.62 -1.42 -1.91 -3.67 -2.18 -2.24 -3.70 -2.52 -2.52 -3.60 -2.24 -2.68 -3.45 -1.40 -2.19 -2.95 -1.01 -1.57 -2.42 -1.96 -0.71 -2.17 -1.26 -0.98 -3.01 -0.64 -2.11 -3.01 -1.61 -1.93 -3.28 -2.22 -1.84 -3.42 -2.68 -2.24 -3.45 -1.79 -1.79 -3.06 -1.90 -0.65 -2.43 -0.68 -2.59 -1.71 -1.71 -1.60 -2.90 -2.18 -1.49 -3.07 -2.19 -1.40 -2.95 -1.51 -1.52 -2.66 -1.52 -1.23 -2.56 -1.57 -1.01 -2.42 -2.63 -1.08 -1.85 -1.18 -1.84 -2.30 -1.08 -1.67 -2.65 -2.70 -2.02 -0.48 -3.14 -2.02 -1.08 -4.39 -2.05 -0.87 -0.24 -1.89 -2.90 -0.19 -2.12 -2.95 -0.55 -2.22 -2.82 -0.66 -2.36 -2.35 -2.02 -2.70 -0.48 -2.89 -2.89 -0.53 -3.88 -2.90 -0.52 -2.93 -1.71 -2.18 -2.82 -2.79 -2.94 -0.53 -2.43 -3.06 -0.62 -2.48 -2.93 -0.86 -2.88 -2.23 -0.90 -2.77 -1.72 -0.77 -2.96 -2.02 -0.61 -2.35 -2.11 -0.92 -1.95 -2.13 -2.02 -3.14 -1.08 -2.90 -3.88 -0.52 -2.05 -2.05 -2.58 -2.85 -2.14 -2.69 -3.55 -2.39 -2.85 -1.29 -2.56 -3.65 -1.14 -2.89 -3.29 -1.24 -3.00 -2.56 -1.19 -2.99 -1.79 -0.50 -3.56 -2.22 -0.62 -2.66 -2.68 -0.87 -2.42 -2.60 -1.09 -2.63 -1.85 -2.05 -4.39 -0.87 -1.71 -2.93 -2.18 -2.14 -2.85 -2.69 -2.33 -2.33 -3.09 -2.59 -2.10 -3.43 -1.71 -2.67 -3.78 -1.23 -3.57 -3.63 -1.45 -3.96 -3.23 -1.13 -2.85 -3.18 -0.80 -2.91 -3.20 -0.90 -2.75 -3.15 -0.85 -2.27 -2.94 -0.96 -1.83 -2.54 -1.89 -0.24 -2.90 -2.79 -2.82 -2.94 -2.39 -3.55 -2.85 -2.10 -2.60 -3.42 -2.18 -2.19 -4.03 -2.36 -2.59 -4.02 -1.57 -4.05 -3.82 -1.77 -4.24 -3.38 -1.48 -2.62 -3.99 -1.07 -2.87 -3.81 -1.04 -3.21 -3.44 -0.82 -2.36 -3.02 -0.87 -1.76 -2.79 -1.84 -1.18 -2.30 -2.12 -0.19 -2.95 -2.43 -0.53 -3.06 -2.57 -1.28 -3.66 -2.67 -1.69 -3.79 -2.59 -2.37 -4.02 -2.59 -2.60 -4.13 -2.48 -4.13 -4.03 -1.93 -4.14 -3.83 -1.57 -1.36 -4.21 -1.01 -1.96 -3.36 -1.07 -1.66 -2.99 -0.95 -1.50 -2.44 -1.67 -1.08 -2.65 -2.22 -0.55 -2.82 -2.48 -0.62 -2.93 -2.89 -1.14 -3.30 -3.57 -1.23 -3.63 -4.05 -1.56 -3.82 -4.14 -2.47 -4.04 -1.02 -1.02 -3.75 -1.69 -1.40 -4.70 -1.87 -1.24 -2.48 -2.74 -1.33 -1.70 -3.11 -1.59 -1.18 -1.40 -2.13 -3.30 -1.16 -1.83 -2.80 -1.17 -1.38 -2.41 -2.36 -0.66 -2.34 -2.88 -0.86 -2.23 -3.00 -1.24 -2.56 -3.96 -1.45 -3.23 -4.24 -1.78 -3.38 -4.14 -1.93 -3.83 -1.40 -1.69 -4.70 -2.10 -2.10 -4.69 -2.26 -2.41 -4.68 -2.84 -2.09 0.11 -3.13 -2.49 -1.21 -1.52 -2.63 -3.46 -1.05 -1.89 -2.63 -1.21 -1.52 -2.36 -2.77 -0.90 -1.72 -2.99 -1.19 -1.79 -2.85 -1.13 -3.18 -2.62 -1.48 -3.99 -1.37 -1.57 -4.21 -1.24 -1.87 -2.47 -2.41 -2.26 -4.68 -2.99 -2.99 -4.68 -2.53 -3.04 -4.56 -2.06 -2.91 -4.17 -1.18 -2.02 -3.43 -1.09 -1.85 -2.81 -1.31 -1.61 -2.25 -2.96 -0.77 -2.02 -3.56 -0.50 -2.22 -2.91 -0.80 -3.20 -2.87 -1.07 -3.81 -1.33 -2.74 -1.70 -2.09 -2.84 0.12 -3.04 -2.53 -4.56 -2.99 -2.99 -4.50 -1.56 -1.86 -3.34 -1.68 -2.17 -3.28 -1.76 -1.61 -2.55 -2.35 -0.61 -2.11 -2.66 -0.62 -2.68 -2.75 -0.90 -3.15 -3.21 -1.04 -3.44 -1.59 -3.11 -1.18 -2.49 -3.13 -1.21 -2.91 -2.06 -4.17 -1.86 -1.56 -3.34 -2.09 -2.09 -3.48 -2.02 -2.21 -2.91 -1.75 -2.24 -2.51 -1.95 -0.92 -2.13 -2.42 -0.87 -2.60 -2.27 -0.85 -2.94 -2.36 -0.82 -3.02 -1.96 -1.01 -3.36 -2.13 -1.40 -3.30 -2.63 -1.52 -3.46 -2.02 -1.18 -3.43 -2.17 -1.68 -3.28 -2.21 -2.02 -2.91 -2.13 -2.13 -2.75 -1.44 -1.73 -2.05 -1.83 -0.96 -2.54 -1.76 -0.87 -2.79 -1.66 -1.07 -2.99 -1.83 -1.16 -2.80 -1.89 -1.05 -2.63 -1.85 -1.09 -2.81 -1.61 -1.76 -2.55 -2.24 -1.75 -2.51 -1.73 -1.44 -2.05 -1.50 -0.95 -2.44 -1.38 -1.17 -2.41 -1.52 -1.21 -2.36 -1.61 -1.31 -2.25 -3.18 -0.29 -0.29 -2.95 -1.10 -1.10 -2.97 -1.10 -0.69 -3.64 -1.24 -0.84 -1.14 -1.71 -2.30 -1.16 -1.51 -2.83 -1.58 -1.23 -3.05 -1.22 -1.36 -2.95 -2.42 -1.25 -2.01 -3.10 -1.62 -2.01 -0.94 -2.20 -2.85 -1.18 -2.03 -3.17 -1.31 -1.76 -3.47 -0.82 -2.08 -3.11 -0.64 -2.64 -2.52 -1.01 -1.68 -2.42 -1.36 -1.85 -1.97 -2.84 -1.92 -1.44 -2.79 -1.99 -2.29 -3.05 -1.93 -2.73 -1.27 -3.07 -2.94 -1.19 -2.72 -3.37 -0.90 -2.60 -3.71 -0.76 -2.74 -3.31 -0.90 -3.21 -2.49 -0.61 -2.38 -2.40 -0.84 -2.23 -2.82 -1.17 -2.54 -2.23 -1.25 -2.06 -2.08 -1.92 -2.84 -1.44 -2.89 -2.89 -1.50 -3.76 -3.00 -1.58 -4.27 -2.89 -2.18 -3.11 -2.56 -3.52 -0.52 -3.16 -3.90 -0.65 -3.40 -3.85 -0.75 -3.53 -3.44 -1.02 -3.47 -2.52 -1.14 -3.08 -2.77 -1.20 -2.81 -2.24 -0.90 -2.44 -2.53 -1.13 -2.42 -2.54 -0.29 -3.18 -0.30 -1.10 -2.96 -0.69 -1.25 -2.43 -2.01 -1.99 -2.79 -2.29 -3.00 -3.76 -1.57 -3.89 -3.89 -1.69 -4.41 -3.46 -2.41 -3.94 -2.36 -3.44 -3.89 -3.50 -3.89 -0.91 -3.43 -4.07 -0.81 -4.30 -3.43 -1.28 -4.00 -2.84 -1.31 -4.06 -2.74 -0.87 -3.29 -2.79 -1.09 -2.98 -3.13 -1.15 -2.57 -3.01 -0.82 -2.07 -2.43 -1.10 -2.95 -1.10 -1.24 -3.63 -0.84 -1.62 -3.10 -2.01 -1.93 -3.05 -2.73 -2.89 -4.27 -2.18 -3.46 -4.41 -2.41 -3.03 -3.03 -3.64 -3.78 -3.15 -3.76 -4.63 -3.35 -3.76 -3.90 -4.58 -3.91 -1.62 -4.32 -3.95 -1.62 -4.78 -3.04 -1.46 -4.99 -2.75 -0.77 -4.31 -3.11 -0.90 -3.63 -3.41 -1.06 -2.92 -3.23 -0.87 -2.30 -2.74 -1.71 -1.14 -2.30 -2.20 -0.94 -2.85 -3.07 -1.27 -2.94 -2.56 -3.11 -3.52 -2.36 -3.94 -3.44 -3.15 -3.78 -3.75 -3.67 -3.67 -4.01 -4.30 -3.57 -4.09 -5.39 -4.55 -3.92 -1.58 -4.89 -4.31 -2.00 -4.90 -4.12 -1.84 -5.44 -2.76 -0.92 -5.29 -3.22 -0.83 -3.85 -3.72 -1.00 -2.88 -3.48 -1.00 -2.24 -3.03 -0.92 -1.65 -2.38 -1.51 -1.16 -2.83 -2.03 -1.18 -3.17 -2.72 -1.19 -3.37 -3.16 -0.52 -3.90 -3.50 -3.89 -3.89 -3.35 -4.63 -3.76 -3.57 -4.30 -4.09 -3.36 -3.37 -4.95 -4.09 -4.04 -4.61 -1.74 -4.55 -4.50 -2.48 -4.16 -4.69 -2.66 -3.72 -4.94 -2.53 -0.99 -4.02 -2.45 -0.98 -2.67 -1.25 -1.41 -3.97 -0.96 -1.64 -3.34 -0.85 -1.74 -2.43 -1.23 -1.58 -3.05 -1.76 -1.31 -3.47 -2.60 -0.90 -3.71 -3.40 -0.65 -3.85 -3.43 -0.91 -4.07 -4.58 -3.89 -3.91 -4.55 -5.39 -3.91 -4.04 -4.10 -4.61 -3.64 -3.65 -5.12 -1.67 -1.45 -5.62 -1.84 -1.22 -2.82 -2.64 -1.44 -2.60 -2.96 -1.59 -2.20 -1.55 -1.93 -4.22 -1.40 -1.83 -3.88 -1.63 -1.74 -3.51 -1.46 -1.89 -2.78 -1.36 -1.22 -2.95 -2.08 -0.82 -3.11 -2.74 -0.76 -3.31 -3.53 -0.75 -3.44 -4.30 -0.81 -3.43 -4.31 -1.62 -3.95 -4.88 -1.58 -4.31 -4.55 -1.74 -4.50 -1.45 -1.67 -5.62 -2.06 -2.06 -5.66 -2.03 -2.46 -5.36 -2.97 -2.03 -2.95 -3.27 -2.59 -2.36 -1.60 -2.80 -4.29 -1.53 -2.65 -3.88 -1.60 -2.18 -3.40 -1.19 -1.59 -2.38 -2.64 -0.64 -2.52 -3.21 -0.90 -2.49 -3.47 -1.02 -2.52 -4.00 -1.28 -2.84 -4.77 -1.62 -3.04 -4.90 -2.01 -4.12 -4.16 -2.48 -4.69 -1.22 -1.84 -2.82 -2.46 -2.03 -5.36 -3.05 -3.05 -5.67 -3.12 -3.44 -5.62 -3.82 -3.23 -2.80 -1.74 -3.74 -4.38 -1.68 -3.42 -3.91 -1.56 -2.53 -3.44 -1.13 -1.87 -2.38 -2.38 -0.61 -2.40 -3.08 -1.14 -2.77 -4.06 -1.31 -2.74 -4.99 -1.46 -2.75 -5.44 -1.84 -2.76 -3.72 -2.67 -4.94 -1.44 -2.64 -2.60 -2.03 -2.97 -2.95 -3.44 -3.12 -5.62 -4.00 -4.00 -5.67 -2.16 -1.90 -3.66 -2.88 -1.72 -3.51 -2.83 -1.43 -3.45 -1.84 -2.59 -3.30 -1.32 -2.01 -2.37 -1.68 -1.01 -2.42 -2.23 -0.84 -2.82 -2.81 -1.20 -2.24 -3.29 -0.87 -2.79 -4.31 -0.77 -3.11 -5.29 -0.92 -3.22 -0.99 -2.53 -4.02 -1.59 -2.96 -2.20 -2.59 -3.27 -2.36 -3.23 -3.82 -2.80 -1.90 -2.16 -3.66 -2.73 -2.73 -3.84 -3.01 -2.60 -3.53 -2.41 -2.23 -3.64 -2.18 -2.12 -2.85 -1.65 -1.74 -2.19 -1.85 -1.36 -1.97 -2.54 -1.17 -2.23 -2.44 -0.90 -2.53 -2.98 -1.09 -3.13 -3.63 -0.90 -3.41 -3.85 -0.83 -3.72 -0.98 -2.45 -2.67 -1.93 -1.55 -4.22 -2.80 -1.60 -4.29 -3.74 -1.74 -4.38 -1.72 -2.88 -3.51 -2.60 -3.01 -3.53 -2.67 -2.67 -3.56 -2.46 -2.60 -3.55 -2.00 -2.03 -2.58 -2.06 -1.25 -2.08 -2.42 -1.13 -2.54 -2.57 -1.15 -3.01 -2.92 -1.06 -3.23 -2.88 -1.00 -3.48 -1.41 -1.25 -3.97 -1.83 -1.40 -3.88 -2.65 -1.53 -3.88 -3.42 -1.68 -3.91 -1.43 -2.83 -3.45 -2.23 -2.41 -3.64 -2.60 -2.46 -3.55 -2.12 -2.12 -2.73 -1.79 -1.79 -2.12 -2.07 -0.82 -2.43 -2.30 -0.87 -2.74 -2.24 -1.00 -3.03 -1.64 -0.96 -3.34 -1.74 -1.63 -3.51 -2.18 -1.60 -3.40 -2.53 -1.56 -3.44 -2.59 -1.84 -3.30 -2.12 -2.18 -2.85 -2.03 -2.00 -2.58 -1.79 -1.79 -2.12 -1.65 -0.92 -2.38 -1.74 -0.85 -2.43 -1.89 -1.46 -2.78 -1.59 -1.19 -2.38 -1.87 -1.13 -2.38 -2.01 -1.32 -2.37 -1.74 -1.65 -2.19 -2.97 -0.69 -1.10 -3.64 -0.84 -1.24 -1.14 -2.30 -1.72 -1.16 -2.83 -1.51 -1.58 -3.05 -1.23 -1.22 -2.95 -1.36 -3.21 -1.28 -1.28 -4.22 -1.28 -1.28 -1.17 -2.54 -2.54 -1.10 -2.68 -2.68 -1.36 -2.73 -2.73 -0.60 -2.61 -2.61 -0.45 -2.18 -2.18 -0.58 -2.17 -2.17 -1.07 -2.10 -2.10 -1.74 -2.01 -2.01 -1.29 -1.99 -2.28 -2.57 -2.04 -1.96 -3.59 -2.14 -1.91 -1.62 -2.60 -3.13 -1.32 -2.50 -3.80 -1.67 -2.17 -4.09 -1.21 -2.29 -4.00 -0.39 -2.74 -3.33 -0.50 -2.39 -3.19 -1.12 -1.91 -3.25 -1.48 -1.99 -2.84 -1.64 -2.09 -2.25 -1.88 -1.88 -2.08 -2.78 -1.98 -1.97 -2.61 -2.10 -3.03 -3.27 -2.37 -3.03 -3.88 -2.74 -3.16 -1.52 -3.18 -3.97 -1.60 -2.73 -4.45 -1.07 -2.80 -4.42 -0.63 -3.54 -3.45 -0.69 -2.95 -3.21 -1.19 -2.75 -3.33 -1.80 -2.76 -3.16 -1.70 -2.83 -2.66 -0.95 -2.17 -2.26 -1.98 -1.29 -2.29 -1.97 -2.78 -1.97 -2.88 -2.88 -2.16 -3.84 -2.92 -2.39 -3.74 -3.00 -3.30 -4.15 -3.16 -3.26 -3.62 -4.07 -3.01 -4.42 -4.09 -3.16 -1.52 -3.61 -4.66 -1.52 -3.78 -4.10 -1.01 -3.55 -3.06 -0.91 -3.08 -3.82 -1.28 -3.58 -3.17 -1.45 -3.12 -3.07 -0.97 -2.49 -2.71 -0.69 -2.97 -1.10 -1.28 -3.20 -1.29 -2.04 -2.56 -1.97 -2.10 -2.61 -3.03 -2.92 -3.84 -2.39 -3.88 -3.88 -2.31 -4.76 -3.98 -2.39 -3.55 -3.67 -3.93 -2.91 -4.57 -4.11 -3.05 -3.62 -5.06 -0.84 -4.44 -4.53 -1.48 -4.18 -4.09 -1.64 -3.95 -3.75 -1.49 -2.81 -1.72 -1.24 -3.30 -3.32 -1.07 -3.41 -3.47 -0.83 -2.88 -2.95 -0.82 -2.28 -2.48 -0.84 -3.63 -1.24 -1.28 -4.22 -1.28 -2.14 -3.57 -1.92 -2.37 -3.27 -3.03 -3.00 -3.74 -3.30 -3.98 -4.77 -2.39 -4.62 -4.62 -3.18 -3.82 -3.24 -4.67 -4.05 -4.55 -4.64 -3.92 -5.01 -4.93 -1.04 -5.15 -4.49 -1.43 -4.97 -3.97 -1.77 -5.05 -3.67 -1.07 -4.46 -4.02 -1.25 -3.98 -4.24 -1.41 -3.61 -4.11 -1.19 -3.55 -3.38 -0.95 -2.67 -2.79 -2.30 -1.14 -1.71 -2.54 -1.17 -2.54 -2.60 -1.62 -3.13 -2.74 -3.87 -3.16 -3.16 -4.15 -3.26 -3.68 -3.55 -3.93 -3.24 -3.82 -4.67 -3.89 -3.89 -4.86 -3.48 -2.54 -5.86 -5.60 -4.16 -4.87 -1.79 -5.03 -5.10 -2.08 -5.04 -4.00 -1.81 -5.90 -3.70 -1.16 -5.49 -4.07 -1.23 -4.74 -4.48 -1.35 -4.04 -4.36 -1.18 -3.47 -3.85 -1.08 -2.61 -3.27 -0.94 -1.97 -2.31 -2.83 -1.16 -1.51 -2.68 -1.10 -2.68 -2.50 -1.32 -3.80 -3.18 -1.52 -3.97 -4.07 -3.62 -3.01 -4.57 -2.91 -4.11 -4.55 -4.05 -4.64 -2.53 -3.49 -5.86 -3.23 -3.24 -6.01 -4.03 -3.52 -5.97 -1.65 -5.58 -5.34 -2.23 -5.33 -5.08 -2.51 -5.70 -4.82 -2.12 -6.88 -3.88 -1.99 -6.31 -4.18 -1.86 -4.46 -4.78 -1.24 -3.45 -4.08 -0.91 -2.34 -3.31 -1.09 -1.98 -2.60 -3.05 -1.58 -1.23 -2.73 -1.36 -2.73 -2.17 -1.67 -4.09 -2.73 -1.60 -4.45 -4.09 -4.42 -3.16 -3.62 -3.05 -5.06 -5.01 -3.91 -4.93 -4.16 -5.60 -4.87 -3.52 -4.04 -5.97 -3.91 -3.92 -6.09 -1.91 -1.04 -6.23 -1.30 -1.78 -3.49 -2.77 -5.13 -5.51 -3.01 -1.74 -3.25 -3.42 -1.78 -3.60 -3.18 -6.02 -5.07 -1.65 -3.33 -4.67 -1.25 -2.68 -3.61 -1.26 -2.11 -2.74 -2.95 -1.22 -1.36 -2.61 -0.60 -2.61 -2.29 -1.21 -4.00 -2.80 -1.07 -4.42 -3.61 -1.52 -4.66 -4.44 -0.83 -4.53 -5.15 -1.04 -4.49 -5.03 -1.79 -5.10 -5.58 -1.65 -5.34 -1.04 -1.91 -6.23 -2.06 -2.06 -6.64 -2.12 -2.46 -6.53 -2.95 -2.03 -4.13 -3.44 -2.57 -3.54 -1.90 -2.81 -5.25 -1.93 -2.80 -5.12 -2.86 -5.64 -4.79 -2.22 -2.93 -4.17 -1.50 -2.26 -2.72 -2.18 -0.45 -2.18 -2.74 -0.39 -3.33 -3.54 -0.63 -3.45 -3.78 -1.52 -4.10 -4.18 -1.48 -4.09 -4.97 -1.43 -3.97 -5.04 -2.08 -4.00 -5.33 -2.23 -5.08 -1.78 -1.30 -3.46 -2.46 -2.12 -6.53 -3.05 -3.05 -6.67 -3.16 -3.44 -6.62 -3.94 -3.06 -3.79 -2.03 -3.82 -5.41 -2.02 -3.67 -5.13 -2.09 -3.19 -4.48 -1.87 -2.35 -3.82 -1.80 -2.15 -2.73 -2.17 -0.58 -2.17 -2.39 -0.50 -3.19 -2.95 -0.69 -3.21 -3.55 -1.01 -3.06 -3.95 -1.64 -3.75 -5.05 -1.77 -3.67 -5.90 -1.81 -3.70 -5.70 -2.51 -4.82 -5.14 -2.77 -5.50 -2.03 -2.95 -4.12 -3.44 -3.16 -6.62 -4.03 -4.03 -6.67 -3.85 -4.31 -6.59 -2.97 -1.82 -4.56 -3.03 -1.41 -4.46 -2.99 -2.34 -4.19 -1.97 -2.36 -3.56 -1.75 -2.02 -2.70 -2.10 -1.07 -2.10 -1.91 -1.12 -3.25 -2.75 -1.19 -3.33 -3.08 -0.91 -3.82 -2.81 -1.49 -1.72 -4.46 -1.07 -4.02 -5.49 -1.16 -4.07 -6.88 -2.12 -3.88 -1.74 -3.01 -3.25 -2.57 -3.44 -3.54 -3.06 -3.94 -3.79 -4.31 -3.85 -6.59 -2.73 -2.73 -4.84 -3.20 -2.75 -4.60 -2.71 -2.16 -4.62 -2.98 -2.51 -4.06 -2.43 -2.31 -3.34 -2.09 -2.08 -2.60 -2.01 -1.74 -2.01 -1.99 -1.48 -2.84 -2.76 -1.80 -3.16 -3.58 -1.28 -3.17 -3.30 -1.24 -3.32 -3.98 -1.25 -4.24 -4.74 -1.23 -4.48 -6.31 -1.99 -4.18 -1.78 -3.42 -3.60 -2.81 -1.90 -5.25 -3.82 -2.03 -5.41 -1.82 -2.97 -4.56 -2.75 -3.20 -4.60 -3.33 -3.33 -4.47 -2.80 -2.77 -4.63 -2.59 -2.50 -3.99 -2.59 -2.29 -3.14 -2.22 -2.11 -2.37 -2.09 -1.64 -2.25 -2.83 -1.70 -2.66 -3.12 -1.45 -3.07 -3.41 -1.07 -3.47 -3.61 -1.41 -4.11 -4.04 -1.35 -4.36 -4.46 -1.86 -4.78 -6.02 -3.18 -5.07 -2.80 -1.93 -5.12 -3.67 -2.02 -5.13 -1.41 -3.03 -4.46 -2.16 -2.71 -4.62 -2.77 -2.80 -4.63 -2.82 -2.82 -4.26 -2.63 -2.62 -3.46 -2.65 -2.48 -2.73 -1.70 -1.89 -2.23 -2.17 -0.95 -2.26 -2.49 -0.97 -2.71 -2.88 -0.83 -2.95 -3.55 -1.19 -3.38 -3.47 -1.18 -3.85 -3.45 -1.24 -4.08 -3.33 -1.65 -4.67 -5.64 -2.87 -4.79 -3.19 -2.09 -4.48 -2.34 -2.99 -4.19 -2.51 -2.98 -4.06 -2.50 -2.59 -3.99 -2.62 -2.63 -3.46 -2.66 -2.66 -2.89 -2.35 -2.38 -2.27 -2.28 -0.82 -2.48 -2.67 -0.95 -2.79 -2.61 -1.08 -3.27 -2.34 -0.91 -3.31 -2.68 -1.25 -3.61 -2.93 -2.22 -4.17 -2.35 -1.87 -3.82 -2.36 -1.97 -3.56 -2.31 -2.43 -3.34 -2.29 -2.59 -3.14 -2.48 -2.65 -2.73 -2.38 -2.35 -2.27 -1.97 -0.94 -2.31 -1.98 -1.09 -2.60 -2.11 -1.26 -2.74 -2.26 -1.50 -2.72 -2.15 -1.80 -2.73 -2.02 -1.75 -2.70 -2.08 -2.09 -2.60 -2.11 -2.22 -2.37 -1.89 -1.70 -2.23 -2.63 -1.85 -1.08 -1.18 -2.30 -1.84 -1.08 -2.65 -1.67 -2.43 -2.01 -1.25 -3.11 -2.01 -1.62 -0.94 -2.85 -2.20 -1.18 -3.17 -2.03 -1.31 -3.47 -1.76 -0.82 -3.11 -2.08 -0.64 -2.52 -2.64 -1.01 -2.42 -1.68 -1.36 -1.97 -1.85 -1.30 -2.28 -1.99 -2.57 -1.96 -2.04 -3.58 -1.91 -2.14 -1.62 -3.13 -2.60 -1.32 -3.80 -2.50 -1.66 -4.09 -2.17 -1.21 -4.00 -2.29 -0.39 -3.33 -2.74 -0.50 -3.19 -2.39 -1.12 -3.25 -1.91 -1.48 -2.84 -1.99 -1.64 -2.25 -2.09 -1.55 -2.11 -2.27 -2.17 -2.29 -2.30 -3.18 -2.29 -2.29 -4.25 -2.27 -2.27 -5.26 -2.27 -2.27 -1.65 -3.61 -3.61 -1.71 -3.71 -3.71 -1.14 -3.70 -3.70 -0.19 -3.17 -3.17 -0.66 -3.17 -3.17 -1.34 -3.15 -3.15 -2.03 -3.09 -3.09 -2.41 -2.68 -2.68 -0.97 -2.30 -2.30 -2.16 -1.55 -2.18 -1.97 -1.97 -2.70 -2.48 -2.09 -3.09 -2.34 -2.95 -3.32 -3.68 -3.05 -2.89 -4.06 -3.11 -3.52 -5.25 -2.98 -4.17 -6.38 -3.66 -3.85 -2.19 -3.28 -5.04 -1.42 -3.83 -4.68 -0.81 -3.59 -4.16 -1.23 -2.94 -4.17 -1.80 -2.89 -4.03 -1.81 -3.05 -3.32 -1.06 -2.76 -2.76 -0.82 -2.16 -2.22 -2.29 -1.29 -1.98 -2.28 -2.17 -2.30 -2.08 -2.49 -3.09 -2.89 -2.89 -2.98 -3.76 -2.99 -2.95 -4.67 -3.10 -3.58 -4.06 -3.49 -4.15 -4.83 -3.64 -4.32 -3.79 -4.13 -4.56 -6.86 -3.28 -4.77 -1.66 -3.72 -5.25 -1.39 -3.95 -4.13 -0.67 -3.17 -4.56 -1.56 -3.63 -4.27 -1.65 -3.68 -3.77 -1.05 -2.97 -3.41 -0.91 -2.51 -2.74 -2.01 -2.42 -1.25 -1.97 -2.56 -2.04 -2.29 -3.18 -2.30 -2.94 -2.33 -3.33 -2.99 -3.77 -2.94 -3.88 -3.89 -3.00 -4.79 -3.94 -3.23 -4.83 -4.05 -4.17 -4.49 -4.63 -4.65 -3.48 -4.84 -5.13 -3.42 -4.42 -5.63 -1.54 -4.36 -5.22 -1.84 -3.91 -4.72 -0.79 -3.71 -3.94 -1.41 -4.05 -4.24 -1.66 -4.06 -4.18 -1.08 -3.40 -3.81 -1.11 -3.12 -3.16 -1.06 -2.34 -2.55 -1.85 -2.63 -1.09 -2.01 -3.10 -1.62 -1.92 -3.57 -2.14 -2.27 -4.24 -2.28 -3.05 -3.67 -2.90 -3.10 -4.68 -3.58 -3.94 -4.79 -3.23 -4.94 -4.94 -3.36 -3.79 -4.47 -5.01 -3.91 -5.65 -4.76 -3.54 -5.03 -5.79 -1.70 -5.23 -5.87 -1.50 -5.11 -5.08 -2.09 -4.98 -4.63 -1.88 -3.47 -2.67 -1.69 -4.22 -4.35 -1.67 -4.24 -4.70 -1.23 -4.00 -4.13 -1.18 -3.52 -3.60 -1.24 -2.67 -3.05 -2.85 -0.94 -2.20 -3.13 -1.62 -2.60 -2.28 -5.25 -2.27 -3.11 -4.05 -3.52 -3.48 -4.06 -4.16 -4.05 -4.83 -4.17 -4.47 -3.79 -5.01 -3.95 -3.95 -5.79 -4.82 -4.33 -5.62 -4.55 -6.24 -5.64 -4.45 -5.92 -5.96 -2.51 -5.00 -5.98 -2.74 -4.44 -6.10 -2.77 -6.64 -4.37 -1.61 -5.23 -4.81 -2.18 -5.10 -4.97 -1.30 -4.66 -4.37 -1.28 -4.15 -3.82 -1.01 -2.60 -3.11 -1.12 -2.04 -2.31 -2.30 -1.18 -1.84 -3.17 -1.18 -2.03 -3.80 -1.32 -2.50 -3.61 -1.65 -3.61 -2.97 -5.24 -4.17 -3.64 -4.83 -4.32 -4.63 -4.50 -4.65 -5.65 -3.91 -4.76 -4.33 -4.82 -5.61 -3.68 -3.69 -6.71 -5.78 -5.21 -5.73 -1.68 -5.71 -6.42 -2.25 -5.34 -6.09 -2.67 -5.56 -6.10 -2.47 -6.84 -4.80 -1.98 -6.34 -5.15 -2.11 -5.32 -5.69 -1.60 -4.14 -5.16 -1.39 -3.44 -4.54 -1.31 -2.88 -3.52 -1.20 -2.17 -2.54 -2.65 -1.08 -1.67 -3.47 -1.31 -1.76 -4.09 -1.67 -2.17 -3.71 -1.71 -3.71 -3.67 -6.37 -3.87 -4.13 -3.79 -4.56 -4.84 -3.48 -5.13 -5.03 -3.54 -5.79 -6.24 -4.54 -5.64 -5.21 -5.78 -5.73 -3.94 -3.95 -7.09 -4.87 -5.35 -6.46 -2.51 -5.65 -6.35 -2.74 -5.61 -6.12 -2.47 -7.42 -4.92 -2.66 -7.15 -5.47 -3.22 -6.48 -5.88 -1.98 -3.72 -5.77 -1.61 -3.25 -4.79 -1.54 -2.64 -3.89 -1.49 -2.10 -2.80 -3.11 -0.82 -2.08 -4.00 -1.21 -2.29 -3.70 -1.14 -3.70 -3.28 -2.19 -5.04 -3.28 -6.86 -4.77 -4.42 -3.42 -5.63 -5.23 -1.70 -5.87 -5.92 -4.45 -5.96 -5.71 -1.68 -6.42 -5.36 -4.88 -6.45 -2.07 -2.07 -7.61 -2.33 -2.43 -7.63 -2.99 -2.01 -5.19 -3.47 -2.56 -4.52 -2.16 -2.83 -6.04 -3.07 -3.74 -6.86 -3.10 -5.89 -5.95 -2.32 -3.48 -5.29 -1.95 -2.83 -4.09 -1.82 -2.16 -3.02 -2.52 -0.64 -2.64 -3.33 -0.39 -2.74 -3.17 -0.19 -3.17 -3.83 -1.42 -4.68 -3.72 -1.66 -5.25 -4.35 -1.54 -5.22 -5.11 -1.50 -5.08 -5.00 -2.51 -5.98 -5.34 -2.26 -6.09 -5.65 -2.51 -6.35 -2.43 -2.33 -7.63 -3.05 -3.05 -7.66 -3.19 -3.44 -7.62 -3.98 -3.04 -4.86 -2.34 -3.82 -6.40 -2.27 -3.80 -6.26 -3.57 -6.71 -6.20 -2.62 -3.48 -5.29 -2.40 -3.08 -4.07 -2.28 -2.39 -3.08 -1.05 -1.72 -2.54 -3.19 -0.50 -2.39 -3.17 -0.66 -3.17 -3.59 -0.81 -4.16 -3.95 -1.39 -4.13 -3.91 -1.84 -4.72 -4.98 -2.09 -4.63 -4.44 -2.74 -6.10 -5.57 -2.68 -6.10 -5.61 -2.75 -6.12 -2.01 -2.99 -5.19 -3.44 -3.19 -7.62 -4.04 -4.04 -7.67 -4.15 -4.44 -7.59 -4.35 -4.57 -4.49 -2.38 -4.68 -6.26 -2.57 -4.25 -5.78 -2.16 -2.94 -4.90 -2.31 -2.89 -3.95 -2.49 -2.69 -3.00 -0.90 -1.76 -2.60 -2.42 -1.01 -1.68 -3.25 -1.12 -1.91 -3.15 -1.34 -3.15 -2.94 -1.23 -4.17 -3.17 -0.67 -4.56 -3.71 -0.79 -3.94 -3.47 -1.88 -2.66 -6.64 -2.77 -4.37 -6.84 -2.47 -4.80 -7.42 -2.47 -4.92 -2.56 -3.47 -4.52 -3.04 -3.98 -4.86 -4.44 -4.15 -7.59 -5.03 -5.03 -7.67 -4.88 -5.41 -7.13 -2.40 -5.53 -6.31 -3.56 -3.33 -5.34 -2.95 -2.90 -4.44 -2.74 -2.65 -3.82 -2.60 -2.48 -2.82 -0.23 -1.34 -2.73 -1.97 -1.36 -1.85 -2.84 -1.48 -1.99 -3.09 -2.03 -3.09 -2.89 -1.80 -4.03 -3.63 -1.56 -4.27 -4.05 -1.41 -4.24 -4.22 -1.69 -4.35 -5.23 -1.61 -4.81 -6.34 -1.98 -5.15 -7.15 -2.66 -5.47 -2.83 -2.16 -6.04 -3.82 -2.34 -6.40 -4.57 -4.35 -4.49 -5.41 -4.88 -7.13 -3.71 -3.71 -5.80 -3.46 -3.66 -5.41 -2.99 -3.12 -5.06 -3.07 -2.72 -4.43 -3.15 -2.89 -3.40 -3.19 -2.80 -2.50 -2.25 -1.64 -2.09 -2.68 -2.41 -2.68 -3.05 -1.81 -3.32 -3.68 -1.65 -3.77 -4.06 -1.66 -4.18 -4.24 -1.67 -4.70 -5.10 -2.18 -4.97 -5.32 -2.11 -5.69 -6.48 -3.22 -5.88 -3.74 -3.07 -6.86 -3.80 -2.27 -6.26 -4.68 -2.38 -6.26 -5.53 -2.40 -6.31 -3.66 -3.46 -5.41 -3.04 -3.04 -5.24 -3.08 -3.06 -4.87 -3.12 -2.91 -3.93 -3.21 -3.08 -3.12 -2.16 -2.37 -2.54 -2.30 -0.97 -2.30 -2.76 -1.06 -2.76 -2.97 -1.05 -3.41 -3.40 -1.08 -3.81 -4.00 -1.23 -4.13 -4.66 -1.30 -4.37 -4.14 -1.60 -5.16 -3.72 -1.98 -5.77 -5.89 -3.10 -5.95 -6.71 -3.57 -6.20 -4.25 -2.57 -5.78 -3.33 -3.56 -5.34 -3.12 -2.99 -5.06 -3.06 -3.08 -4.87 -3.09 -3.09 -4.11 -3.24 -3.16 -3.42 -3.17 -3.05 -2.70 -0.30 -0.78 -3.00 -2.16 -0.82 -2.22 -2.51 -0.91 -2.74 -3.1