# vtk DataFile Version 2.0
VTK from Matlab
ASCII
DATASET STRUCTURED_GRID
DIMENSIONS 26266 1 1
POINTS 26266 float
26.00 99.00 9.00 26.00 100.00 9.00 27.00 100.00 9.00 36.00 100.00 9.00 29.00 98.00 10.00 30.00 98.00 10.00 32.00 98.00 10.00 33.00 98.00 10.00 34.00 98.00 10.00 35.00 98.00 10.00 37.00 98.00 10.00 26.00 99.00 10.00 27.00 99.00 10.00 29.00 99.00 10.00 30.00 99.00 10.00 32.00 99.00 10.00 33.00 99.00 10.00 34.00 99.00 10.00 35.00 99.00 10.00 36.00 99.00 10.00 37.00 99.00 10.00 26.00 100.00 10.00 36.00 100.00 10.00 37.00 100.00 10.00 31.00 76.00 11.00 33.00 76.00 11.00 34.00 76.00 11.00 28.00 77.00 11.00 29.00 77.00 11.00 30.00 77.00 11.00 31.00 77.00 11.00 33.00 77.00 11.00 34.00 77.00 11.00 27.00 78.00 11.00 28.00 78.00 11.00 29.00 78.00 11.00 30.00 78.00 11.00 31.00 78.00 11.00 32.00 78.00 11.00 33.00 78.00 11.00 24.00 79.00 11.00 28.00 79.00 11.00 31.00 79.00 11.00 29.00 90.00 11.00 28.00 91.00 11.00 24.00 92.00 11.00 25.00 92.00 11.00 26.00 92.00 11.00 27.00 92.00 11.00 28.00 92.00 11.00 24.00 93.00 11.00 25.00 93.00 11.00 26.00 93.00 11.00 27.00 93.00 11.00 28.00 93.00 11.00 29.00 93.00 11.00 33.00 93.00 11.00 34.00 93.00 11.00 35.00 93.00 11.00 37.00 93.00 11.00 38.00 93.00 11.00 24.00 94.00 11.00 25.00 94.00 11.00 26.00 94.00 11.00 27.00 94.00 11.00 28.00 94.00 11.00 29.00 94.00 11.00 33.00 94.00 11.00 34.00 94.00 11.00 37.00 94.00 11.00 25.00 95.00 11.00 26.00 95.00 11.00 27.00 95.00 11.00 28.00 95.00 11.00 29.00 95.00 11.00 30.00 95.00 11.00 31.00 95.00 11.00 32.00 95.00 11.00 33.00 95.00 11.00 34.00 95.00 11.00 36.00 95.00 11.00 37.00 95.00 11.00 25.00 96.00 11.00 26.00 96.00 11.00 27.00 96.00 11.00 28.00 96.00 11.00 29.00 96.00 11.00 30.00 96.00 11.00 31.00 96.00 11.00 32.00 96.00 11.00 33.00 96.00 11.00 34.00 96.00 11.00 35.00 96.00 11.00 36.00 96.00 11.00 37.00 96.00 11.00 25.00 97.00 11.00 26.00 97.00 11.00 27.00 97.00 11.00 28.00 97.00 11.00 29.00 97.00 11.00 30.00 97.00 11.00 31.00 97.00 11.00 32.00 97.00 11.00 33.00 97.00 11.00 34.00 97.00 11.00 35.00 97.00 11.00 36.00 97.00 11.00 25.00 98.00 11.00 26.00 98.00 11.00 27.00 98.00 11.00 28.00 98.00 11.00 29.00 98.00 11.00 30.00 98.00 11.00 31.00 98.00 11.00 32.00 98.00 11.00 33.00 98.00 11.00 34.00 98.00 11.00 35.00 98.00 11.00 36.00 98.00 11.00 37.00 98.00 11.00 25.00 99.00 11.00 26.00 99.00 11.00 27.00 99.00 11.00 28.00 99.00 11.00 29.00 99.00 11.00 30.00 99.00 11.00 31.00 99.00 11.00 32.00 99.00 11.00 33.00 99.00 11.00 34.00 99.00 11.00 35.00 99.00 11.00 36.00 99.00 11.00 37.00 99.00 11.00 38.00 99.00 11.00 24.00 100.00 11.00 25.00 100.00 11.00 26.00 100.00 11.00 27.00 100.00 11.00 28.00 100.00 11.00 29.00 100.00 11.00 30.00 100.00 11.00 31.00 100.00 11.00 32.00 100.00 11.00 33.00 100.00 11.00 34.00 100.00 11.00 35.00 100.00 11.00 36.00 100.00 11.00 37.00 100.00 11.00 38.00 100.00 11.00 34.00 54.00 12.00 33.00 56.00 12.00 32.00 72.00 12.00 33.00 72.00 12.00 33.00 73.00 12.00 34.00 73.00 12.00 35.00 73.00 12.00 27.00 74.00 12.00 35.00 74.00 12.00 36.00 74.00 12.00 32.00 75.00 12.00 33.00 75.00 12.00 35.00 75.00 12.00 36.00 75.00 12.00 31.00 76.00 12.00 32.00 76.00 12.00 33.00 76.00 12.00 34.00 76.00 12.00 35.00 76.00 12.00 36.00 76.00 12.00 37.00 76.00 12.00 28.00 77.00 12.00 29.00 77.00 12.00 30.00 77.00 12.00 31.00 77.00 12.00 32.00 77.00 12.00 33.00 77.00 12.00 34.00 77.00 12.00 35.00 77.00 12.00 36.00 77.00 12.00 37.00 77.00 12.00 38.00 77.00 12.00 27.00 78.00 12.00 28.00 78.00 12.00 29.00 78.00 12.00 30.00 78.00 12.00 31.00 78.00 12.00 32.00 78.00 12.00 33.00 78.00 12.00 34.00 78.00 12.00 35.00 78.00 12.00 36.00 78.00 12.00 37.00 78.00 12.00 38.00 78.00 12.00 39.00 78.00 12.00 40.00 78.00 12.00 26.00 79.00 12.00 27.00 79.00 12.00 28.00 79.00 12.00 29.00 79.00 12.00 30.00 79.00 12.00 31.00 79.00 12.00 32.00 79.00 12.00 33.00 79.00 12.00 34.00 79.00 12.00 35.00 79.00 12.00 36.00 79.00 12.00 37.00 79.00 12.00 38.00 79.00 12.00 39.00 79.00 12.00 40.00 79.00 12.00 23.00 80.00 12.00 25.00 80.00 12.00 26.00 80.00 12.00 27.00 80.00 12.00 30.00 80.00 12.00 31.00 80.00 12.00 32.00 80.00 12.00 33.00 80.00 12.00 34.00 80.00 12.00 35.00 80.00 12.00 36.00 80.00 12.00 37.00 80.00 12.00 38.00 80.00 12.00 39.00 80.00 12.00 40.00 80.00 12.00 22.00 81.00 12.00 25.00 81.00 12.00 33.00 81.00 12.00 34.00 81.00 12.00 38.00 81.00 12.00 39.00 81.00 12.00 40.00 81.00 12.00 32.00 82.00 12.00 33.00 82.00 12.00 34.00 82.00 12.00 39.00 82.00 12.00 40.00 82.00 12.00 40.00 83.00 12.00 38.00 89.00 12.00 25.00 90.00 12.00 24.00 91.00 12.00 38.00 91.00 12.00 23.00 92.00 12.00 24.00 92.00 12.00 25.00 92.00 12.00 27.00 92.00 12.00 38.00 92.00 12.00 39.00 92.00 12.00 23.00 93.00 12.00 24.00 93.00 12.00 25.00 93.00 12.00 26.00 93.00 12.00 27.00 93.00 12.00 28.00 93.00 12.00 29.00 93.00 12.00 35.00 93.00 12.00 36.00 93.00 12.00 37.00 93.00 12.00 38.00 93.00 12.00 39.00 93.00 12.00 40.00 93.00 12.00 22.00 94.00 12.00 23.00 94.00 12.00 24.00 94.00 12.00 25.00 94.00 12.00 26.00 94.00 12.00 27.00 94.00 12.00 29.00 94.00 12.00 30.00 94.00 12.00 31.00 94.00 12.00 33.00 94.00 12.00 34.00 94.00 12.00 35.00 94.00 12.00 36.00 94.00 12.00 37.00 94.00 12.00 38.00 94.00 12.00 39.00 94.00 12.00 23.00 95.00 12.00 24.00 95.00 12.00 25.00 95.00 12.00 26.00 95.00 12.00 27.00 95.00 12.00 28.00 95.00 12.00 29.00 95.00 12.00 30.00 95.00 12.00 31.00 95.00 12.00 32.00 95.00 12.00 33.00 95.00 12.00 34.00 95.00 12.00 35.00 95.00 12.00 36.00 95.00 12.00 37.00 95.00 12.00 38.00 95.00 12.00 39.00 95.00 12.00 23.00 96.00 12.00 24.00 96.00 12.00 25.00 96.00 12.00 26.00 96.00 12.00 27.00 96.00 12.00 28.00 96.00 12.00 29.00 96.00 12.00 30.00 96.00 12.00 31.00 96.00 12.00 32.00 96.00 12.00 33.00 96.00 12.00 34.00 96.00 12.00 35.00 96.00 12.00 36.00 96.00 12.00 37.00 96.00 12.00 38.00 96.00 12.00 39.00 96.00 12.00 23.00 97.00 12.00 24.00 97.00 12.00 25.00 97.00 12.00 26.00 97.00 12.00 27.00 97.00 12.00 28.00 97.00 12.00 29.00 97.00 12.00 30.00 97.00 12.00 31.00 97.00 12.00 32.00 97.00 12.00 33.00 97.00 12.00 34.00 97.00 12.00 35.00 97.00 12.00 36.00 97.00 12.00 37.00 97.00 12.00 38.00 97.00 12.00 24.00 98.00 12.00 25.00 98.00 12.00 26.00 98.00 12.00 27.00 98.00 12.00 28.00 98.00 12.00 29.00 98.00 12.00 30.00 98.00 12.00 31.00 98.00 12.00 32.00 98.00 12.00 33.00 98.00 12.00 34.00 98.00 12.00 35.00 98.00 12.00 36.00 98.00 12.00 37.00 98.00 12.00 38.00 98.00 12.00 24.00 99.00 12.00 25.00 99.00 12.00 26.00 99.00 12.00 27.00 99.00 12.00 28.00 99.00 12.00 29.00 99.00 12.00 30.00 99.00 12.00 31.00 99.00 12.00 32.00 99.00 12.00 33.00 99.00 12.00 34.00 99.00 12.00 35.00 99.00 12.00 36.00 99.00 12.00 37.00 99.00 12.00 38.00 99.00 12.00 39.00 99.00 12.00 23.00 100.00 12.00 24.00 100.00 12.00 25.00 100.00 12.00 26.00 100.00 12.00 27.00 100.00 12.00 28.00 100.00 12.00 29.00 100.00 12.00 30.00 100.00 12.00 31.00 100.00 12.00 32.00 100.00 12.00 33.00 100.00 12.00 34.00 100.00 12.00 35.00 100.00 12.00 36.00 100.00 12.00 37.00 100.00 12.00 38.00 100.00 12.00 39.00 100.00 12.00 40.00 100.00 12.00 32.00 49.00 13.00 31.00 50.00 13.00 33.00 50.00 13.00 15.00 51.00 13.00 31.00 51.00 13.00 33.00 51.00 13.00 13.00 54.00 13.00 29.00 54.00 13.00 33.00 54.00 13.00 34.00 54.00 13.00 12.00 55.00 13.00 13.00 55.00 13.00 14.00 55.00 13.00 29.00 55.00 13.00 14.00 56.00 13.00 29.00 56.00 13.00 33.00 56.00 13.00 34.00 56.00 13.00 34.00 57.00 13.00 34.00 58.00 13.00 35.00 58.00 13.00 24.00 74.00 13.00 25.00 74.00 13.00 32.00 74.00 13.00 37.00 74.00 13.00 23.00 75.00 13.00 24.00 75.00 13.00 25.00 75.00 13.00 26.00 75.00 13.00 28.00 75.00 13.00 29.00 75.00 13.00 30.00 75.00 13.00 31.00 75.00 13.00 32.00 75.00 13.00 33.00 75.00 13.00 34.00 75.00 13.00 23.00 76.00 13.00 24.00 76.00 13.00 25.00 76.00 13.00 27.00 76.00 13.00 28.00 76.00 13.00 29.00 76.00 13.00 30.00 76.00 13.00 31.00 76.00 13.00 32.00 76.00 13.00 33.00 76.00 13.00 34.00 76.00 13.00 35.00 76.00 13.00 39.00 76.00 13.00 22.00 77.00 13.00 23.00 77.00 13.00 24.00 77.00 13.00 26.00 77.00 13.00 27.00 77.00 13.00 28.00 77.00 13.00 29.00 77.00 13.00 30.00 77.00 13.00 31.00 77.00 13.00 32.00 77.00 13.00 33.00 77.00 13.00 34.00 77.00 13.00 35.00 77.00 13.00 36.00 77.00 13.00 37.00 77.00 13.00 39.00 77.00 13.00 40.00 77.00 13.00 22.00 78.00 13.00 23.00 78.00 13.00 24.00 78.00 13.00 26.00 78.00 13.00 27.00 78.00 13.00 28.00 78.00 13.00 29.00 78.00 13.00 30.00 78.00 13.00 31.00 78.00 13.00 32.00 78.00 13.00 33.00 78.00 13.00 34.00 78.00 13.00 35.00 78.00 13.00 36.00 78.00 13.00 37.00 78.00 13.00 38.00 78.00 13.00 39.00 78.00 13.00 40.00 78.00 13.00 22.00 79.00 13.00 23.00 79.00 13.00 25.00 79.00 13.00 26.00 79.00 13.00 27.00 79.00 13.00 28.00 79.00 13.00 29.00 79.00 13.00 30.00 79.00 13.00 31.00 79.00 13.00 32.00 79.00 13.00 33.00 79.00 13.00 34.00 79.00 13.00 35.00 79.00 13.00 36.00 79.00 13.00 37.00 79.00 13.00 38.00 79.00 13.00 39.00 79.00 13.00 40.00 79.00 13.00 41.00 79.00 13.00 22.00 80.00 13.00 23.00 80.00 13.00 24.00 80.00 13.00 25.00 80.00 13.00 26.00 80.00 13.00 27.00 80.00 13.00 28.00 80.00 13.00 29.00 80.00 13.00 30.00 80.00 13.00 31.00 80.00 13.00 32.00 80.00 13.00 33.00 80.00 13.00 34.00 80.00 13.00 35.00 80.00 13.00 36.00 80.00 13.00 37.00 80.00 13.00 38.00 80.00 13.00 39.00 80.00 13.00 40.00 80.00 13.00 41.00 80.00 13.00 21.00 81.00 13.00 22.00 81.00 13.00 25.00 81.00 13.00 26.00 81.00 13.00 27.00 81.00 13.00 28.00 81.00 13.00 29.00 81.00 13.00 30.00 81.00 13.00 31.00 81.00 13.00 32.00 81.00 13.00 33.00 81.00 13.00 34.00 81.00 13.00 35.00 81.00 13.00 36.00 81.00 13.00 37.00 81.00 13.00 38.00 81.00 13.00 40.00 81.00 13.00 41.00 81.00 13.00 20.00 82.00 13.00 21.00 82.00 13.00 25.00 82.00 13.00 26.00 82.00 13.00 27.00 82.00 13.00 28.00 82.00 13.00 29.00 82.00 13.00 30.00 82.00 13.00 31.00 82.00 13.00 32.00 82.00 13.00 33.00 82.00 13.00 34.00 82.00 13.00 35.00 82.00 13.00 36.00 82.00 13.00 37.00 82.00 13.00 40.00 82.00 13.00 41.00 82.00 13.00 42.00 82.00 13.00 18.00 83.00 13.00 20.00 83.00 13.00 21.00 83.00 13.00 29.00 83.00 13.00 30.00 83.00 13.00 31.00 83.00 13.00 32.00 83.00 13.00 33.00 83.00 13.00 34.00 83.00 13.00 35.00 83.00 13.00 40.00 83.00 13.00 41.00 83.00 13.00 42.00 
[...]
POINT_DATA 26266
VECTORS vector_field float
-4.06 7.00 -3.71 -3.81 6.00 -4.11 -2.96 5.91 -5.82 3.67 6.00 -3.97 -4.01 8.00 -9.00 -5.54 8.00 -9.00 1.89 8.00 -5.34 4.43 8.00 -5.43 2.69 8.00 -3.81 2.53 8.00 -3.29 4.97 0.95 0.49 -4.14 7.00 -5.18 -4.87 7.00 -4.56 -3.92 7.00 -8.34 -5.15 7.00 -9.00 0.80 7.00 -5.14 4.09 7.00 -5.41 2.70 7.00 -4.43 2.10 7.00 -4.28 1.86 7.00 -4.64 0.81 7.00 -2.67 -4.18 6.00 -5.37 1.67 6.00 -4.24 0.73 6.00 -3.00 4.59 3.85 0.17 3.45 2.93 -1.32 3.43 4.90 1.15 0.84 3.89 1.29 1.46 4.32 2.83 1.85 4.68 5.43 4.50 4.32 0.32 3.57 4.86 1.35 2.97 5.56 1.34 2.47 4.77 1.08 2.30 4.31 3.01 1.21 4.14 4.31 0.93 4.38 5.53 1.71 4.26 4.48 4.04 4.84 1.63 2.67 3.50 0.25 -2.05 2.58 -2.40 3.47 4.80 0.47 1.77 4.97 0.22 2.48 -0.08 -2.57 2.85 -1.30 -2.60 0.16 6.55 -5.93 -0.81 7.48 -5.01 0.81 4.53 -2.02 2.60 3.12 -2.90 3.30 -1.30 -2.65 -0.80 5.57 -0.32 -0.82 5.84 -5.73 1.08 2.37 -4.19 0.55 2.11 -4.14 1.67 0.10 -2.78 1.92 0.90 -2.57 -0.46 0.22 -3.15 -0.38 1.46 -4.50 -0.36 2.15 -4.97 0.38 1.81 -2.61 6.25 7.17 1.56 -1.24 5.76 -2.59 -1.09 5.04 -5.67 0.46 2.77 -1.94 2.36 3.51 -0.97 4.22 3.54 -0.89 2.81 2.04 -2.91 0.08 0.16 -3.70 0.66 1.17 -4.97 7.50 6.03 1.86 -0.19 11.00 -2.51 -4.01 11.00 -6.33 0.09 6.01 -3.76 -2.31 9.06 -5.45 -0.13 11.00 -4.10 2.63 4.36 -2.90 4.04 5.21 -3.22 6.33 4.20 -2.82 4.63 9.46 -2.06 4.11 3.86 -2.05 7.92 5.12 1.51 5.32 4.93 0.68 -2.24 3.78 -2.61 -2.28 10.00 -4.17 -4.84 10.00 -5.53 -5.95 10.00 -6.05 -4.81 9.99 -5.96 -3.73 10.00 -6.33 -0.87 10.00 -4.62 4.85 8.73 -4.05 4.14 10.00 -3.73 3.86 9.96 -2.84 2.61 9.95 -2.18 8.15 4.19 1.46 5.46 4.46 0.33 -2.98 9.00 -6.18 -1.37 9.00 -2.98 -4.99 9.00 -6.18 -3.22 9.00 -10.00 -4.09 8.84 -8.96 -5.55 9.00 -6.17 -5.48 9.00 -7.45 3.04 9.00 -5.78 3.87 9.00 -4.36 2.49 8.98 -2.62 2.06 8.98 -2.54 2.03 9.00 -2.86 -0.65 8.00 -3.31 -2.07 8.00 -4.01 -4.99 8.00 -6.16 -2.98 8.00 -9.88 -4.05 8.00 -10.00 -5.04 8.00 -10.00 -5.62 8.00 -7.23 1.77 8.00 -6.39 4.39 8.00 -6.52 3.24 8.00 -4.04 2.44 8.00 -3.14 1.45 8.00 -3.93 -0.89 8.00 -1.50 -0.35 7.00 -2.88 -1.57 7.00 -3.36 -4.92 7.00 -5.82 -3.03 7.00 -9.98 -4.02 7.00 -10.00 -1.04 7.00 -4.21 -2.67 7.00 -6.75 -0.65 7.00 -2.25 3.01 7.00 -4.88 2.84 7.00 -4.23 2.35 7.00 -4.08 1.52 7.00 -3.57 0.35 6.96 -2.40 0.69 7.00 -1.78 -1.92 6.00 -5.87 0.90 6.00 -2.18 0.16 6.00 -1.53 -0.82 6.00 -1.90 0.46 6.00 0.11 0.48 6.00 -0.27 0.45 6.00 -0.58 0.29 6.00 -0.40 0.65 6.00 -0.94 0.39 6.00 -1.14 -0.15 6.00 -0.82 1.25 6.00 -0.33 0.20 6.00 -1.66 0.07 5.95 -1.84 -0.25 6.00 -1.70 9.88 -1.49 0.37 8.36 3.35 -1.52 6.54 -3.79 -0.46 5.82 -2.69 -0.41 5.72 -3.95 -0.47 5.92 -2.56 -1.58 4.99 -2.60 -1.78 4.38 -5.40 -0.88 4.65 -0.69 -0.93 5.37 -0.45 -3.01 1.44 1.68 3.76 1.23 1.46 3.44 4.14 4.45 0.09 5.31 5.82 0.33 1.66 2.40 3.42 0.49 2.89 5.61 -0.71 3.26 7.00 -0.48 2.39 4.97 4.02 4.93 0.45 5.41 7.42 0.06 4.87 8.55 1.01 0.87 2.58 5.03 0.39 2.91 6.17 0.22 3.65 7.92 1.52 3.20 5.06 -0.05 3.24 7.66 -0.82 3.24 8.30 -1.10 2.81 6.13 2.18 4.66 0.55 4.06 6.59 0.50 3.25 7.09 0.58 4.09 8.07 1.31 1.08 3.10 6.10 0.83 3.10 8.04 0.60 3.25 8.90 0.25 3.70 9.57 -0.11 3.33 8.84 0.37 3.08 6.25 -0.43 2.91 6.62 -0.79 2.61 5.52 0.37 3.03 4.12 3.08 6.86 0.70 4.76 7.72 1.69 5.20 7.53 2.36 5.59 7.35 3.00 6.93 3.37 1.16 1.81 2.50 5.13 1.37 2.62 7.72 1.11 2.49 8.46 0.97 2.86 9.62 0.34 3.02 9.77 -0.31 2.90 9.80 -0.66 2.72 10.16 -1.10 2.70 8.99 -0.54 2.77 5.13 1.70 3.98 1.20 2.48 6.71 0.85 4.45 7.25 1.82 5.87 7.08 2.81 7.36 4.11 2.47 8.73 2.93 2.27 -7.20 0.65 0.81 1.55 2.32 2.73 2.21 2.35 3.94 1.40 1.97 7.62 0.47 2.35 7.85 -0.19 2.31 9.59 -0.13 2.30 7.26 -0.60 2.34 6.00 -0.22 2.88 4.15 1.50 3.98 1.02 2.01 5.87 0.77 2.86 6.90 1.33 5.89 6.29 2.71 8.72 2.57 2.02 8.96 3.91 2.55 -7.32 -1.07 -1.26 2.74 1.90 1.93 -0.03 2.53 3.35 0.07 2.60 3.08 5.17 5.69 2.40 9.00 1.87 2.14 9.31 3.86 -9.66 -0.01 2.28 2.23 -0.05 2.20 2.52 1.15 2.34 2.13 8.16 1.11 1.97 10.04 -4.06 4.78 13.43 0.62 5.75 -2.65 4.34 -3.16 3.72 3.54 -2.15 1.29 5.54 -4.11 0.42 3.13 -0.30 -1.26 2.72 -3.52 1.16 6.79 -2.57 0.21 9.17 -3.91 4.22 3.22 -0.67 7.11 4.18 -1.31 5.09 4.28 -1.24 -0.26 6.79 -3.60 -1.08 6.53 -6.14 -0.66 10.84 -1.81 1.74 4.95 0.79 4.00 3.85 -0.84 4.76 2.15 -0.76 5.24 2.39 -0.71 2.80 5.90 -0.40 1.04 4.56 0.41 0.87 5.72 0.25 2.32 2.57 -1.97 3.99 5.85 -0.83 3.69 7.02 0.95 -2.07 5.00 -2.46 -0.27 4.80 -1.15 0.01 6.19 -1.65 -2.11 6.44 -2.77 -0.24 6.21 -2.83 3.15 3.38 -0.78 5.58 2.54 -1.15 4.92 2.69 -1.73 4.57 3.65 -1.72 4.16 5.99 -1.52 3.76 8.91 -1.86 3.09 10.22 -2.19 2.46 10.48 -1.52 1.10 5.05 -2.89 1.88 1.51 -2.38 3.65 5.97 1.05 -3.11 4.23 -2.28 -0.39 5.57 -1.49 -0.09 10.99 -2.57 -2.37 4.95 -5.73 -0.23 4.61 -3.36 2.37 3.37 -1.61 0.95 7.44 -2.43 3.31 5.32 -5.19 4.67 5.77 -4.01 6.07 4.13 -3.44 4.39 6.34 -1.96 5.29 9.69 -2.88 2.74 10.94 -2.09 0.84 10.99 -2.41 7.20 5.18 0.51 6.12 5.19 0.43 3.86 5.00 2.51 -3.07 3.14 -2.11 1.79 10.00 -2.40 -0.96 10.00 -4.77 -1.56 10.00 -4.18 -4.98 10.00 -7.12 -5.94 10.00 -7.00 -5.50 10.00 -6.11 -2.46 6.56 -7.82 2.78 5.30 -6.32 3.84 5.45 -5.12 4.11 9.54 -3.44 3.12 9.92 -2.90 1.83 9.97 -2.69 0.51 10.00 -2.70 5.21 3.57 -0.42 5.18 1.74 -1.18 5.18 4.18 0.49 -1.36 5.94 0.51 0.15 9.00 -4.39 -0.72 9.00 -4.33 -1.10 9.00 -3.73 -1.58 9.00 -3.42 -5.99 9.00 -7.19 -5.09 8.97 -6.81 -3.82 9.00 -7.22 1.41 6.98 -5.37 4.86 7.51 -4.88 4.20 9.00 -4.90 2.42 9.00 -3.15 0.68 9.00 -2.84 2.05 9.00 -3.52 5.52 9.00 -1.91 4.75 4.26 -1.42 -0.09 8.00 -4.61 1.06 8.00 -2.83 0.08 8.00 -2.96 -1.14 8.00 -3.48 -5.99 8.00 -7.19 -4.86 7.98 -6.89 -3.75 8.00 -7.28 0.44 8.00 -4.73 1.22 8.00 -4.15 3.68 8.00 -4.36 2.23 8.00 -3.38 2.34 7.98 -3.60 1.21 7.94 -2.99 -0.16 8.00 -2.25 0.18 7.96 -1.86 1.34 7.00 -2.76 0.95 7.00 -2.57 0.20 7.00 -2.01 -0.01 7.00 -1.11 0.43 7.00 -0.59 0.82 7.00 -0.69 0.57 7.00 -0.96 0.49 7.00 -0.59 0.64 7.00 -1.21 0.27 7.00 -1.16 0.34 7.00 -1.25 2.66 6.98 -3.49 0.72 7.00 -1.92 -0.12 6.99 -2.43 -0.29 7.00 -1.67 5.56 3.16 1.92 -1.38 3.59 0.25 1.28 6.00 -2.85 0.53 6.00 -0.80 0.89 5.91 -0.70 0.95 6.00 -0.76 0.53 6.00 -0.64 0.61 6.00 -0.63 0.63 6.00 -0.85 0.29 6.00 -0.31 -0.32 6.00 -1.23 0.18 6.00 -1.36 -0.31 6.00 -1.40 -0.65 6.00 -1.14 0.37 5.94 -0.47 4.55 5.52 -0.81 -0.28 6.00 -1.78 2.48 5.80 0.48 1.94 5.81 0.51 6.73 -4.43 0.20 6.48 -2.96 2.10 13.92 -3.82 3.77 -5.16 5.24 2.67 3.52 -1.42 0.38 13.96 -2.44 2.35 -1.83 4.43 -0.15 -13.55 -5.69 2.05 16.04 -1.21 0.38 16.70 -2.08 4.37 -1.58 2.74 0.07 -2.22 2.46 -0.26 -2.75 2.15 -0.22 -10.63 -6.10 4.18 -2.31 2.12 0.18 -7.85 -3.62 1.14 5.27 -1.24 -3.33 13.01 -1.99 6.73 7.94 2.28 -1.97 6.25 2.55 -1.08 5.12 2.47 -1.18 -1.60 -2.21 -2.22 -8.59 -9.31 -6.40 -0.60 4.44 8.24 3.00 -3.72 -2.74 -1.46 -4.68 -2.66 -1.52 -2.50 -2.17 -5.03 0.86 -4.64 -6.46 -0.63 -0.92 -0.10 2.32 5.53 0.49 3.86 7.57 -0.14 3.89 7.72 -0.05 4.00 8.50 -0.37 4.16 8.72 -0.90 4.16 8.56 -1.44 4.03 8.16 -8.82 -3.95 -3.35 -9.09 -3.18 -4.30 -11.57 1.48 1.84 0.09 2.05 5.66 1.18 3.57 7.97 0.77 3.83 8.67 0.78 4.38 9.37 0.37 4.35 9.48 -0.29 4.35 9.75 -0.83 4.16 9.37 -1.30 3.83 8.97 -1.90 3.48 8.00 5.53 1.93 2.00 -6.94 -4.23 -4.28 -9.91 -5.14 1.95 -8.20 -4.09 -4.14 1.20 2.49 6.08 1.18 2.72 6.79 1.12 3.16 8.36 0.98 3.72 9.17 0.68 4.02 9.46 0.31 3.84 9.49 -0.39 3.79 10.06 -0.97 3.62 9.89 -1.31 3.32 9.19 -1.74 3.15 9.04 -2.42 2.98 8.61 -2.53 2.32 7.00 5.78 2.65 1.08 6.09 0.74 0.57 -6.97 -5.27 -4.23 -7.28 -5.16 -4.14 -8.35 -5.62 -3.36 1.74 2.32 6.64 1.67 2.75 8.59 1.51 3.30 9.60 1.15 3.42 9.62 0.71 3.49 9.81 0.29 3.27 9.82 -0.51 3.16 10.34 -1.07 2.97 9.86 -1.54 2.83 9.36 -1.94 2.65 9.04 -2.41 2.60 9.44 -2.92 2.26 9.10 -2.40 1.37 6.25 5.87 3.19 1.89 3.54 2.83 3.94 -6.41 -6.08 -4.37 -9.91 -1.01 2.47 2.15 1.85 6.74 2.19 2.18 8.16 1.95 2.36 9.35 1.60 2.55 9.56 1.35 2.71 9.84 0.65 2.79 10.19 -0.07 2.81 10.74 -0.58 2.76 10.81 -1.13 2.57 10.35 -1.65 2.28 9.45 -2.11 2.12 9.34 -2.58 2.10 9.65 -3.11 1.91 9.29 -2.95 1.33 8.13 5.41 3.14 2.77 6.87 2.46 0.56 6.40 -5.89 -2.02 -9.07 -2.15 2.21 -9.19 -0.92 2.09 2.16 1.33 6.96 2.48 1.52 8.03 2.11 1.41 8.07 1.91 1.52 9.10 1.68 1.77 9.20 1.43 1.98 9.95 0.67 2.10 10.49 -0.07 2.17 10.64 -0.52 2.06 10.76 -1.04 2.03 10.48 -1.78 1.81 9.59 -2.29 1.99 8.73 -3.00 1.85 8.60 -3.28 1.52 9.18 -3.08 1.11 8.37 5.40 3.68 3.22 8.08 1.31 -0.00 3.77 0.18 -1.74 -4.55 -3.61 -5.12 -9.47 -2.22 -0.37 2.60 1.05 8.36 2.08 0.95 8.15 1.82 0.85 8.54 1.95 1.20 9.14 1.47 1.30 9.77 0.79 1.35 9.99 -0.05 1.37 10.73 -0.49 1.36 10.54 -1.17 1.18 10.11 -1.87 1.33 9.49 -2.32 1.38 8.47 -2.95 1.21 8.33 -3.41 0.96 9.20 -3.23 0.61 8.35 7.31 -5.76 -4.39 7.81 -2.33 -12.00 -5.16 1.88 -8.48 -8.83 -5.19 -9.85 3.09 0.91 8.41 2.78 0.64 8.60 2.46 0.65 8.82 2.22 0.76 9.07 1.53 0.61 9.28 0.90 0.65 9.53 0.21 0.74 9.64 -0.38 0.63 10.28 -1.18 0.49 9.98 -1.93 0.61 9.35 -2.40 0.71 8.56 -3.06 0.51 8.42 -3.53 0.31 9.04 12.34 3.40 -9.24 11.34 3.42 -9.24 10.34 3.42 -9.24 -5.39 -6.45 -9.87 -4.36 1.60 -7.75 -6.98 -0.79 -11.95 1.43 0.47 8.68 0.90 0.30 8.90 0.27 0.22 9.27 -0.48 0.19 9.20 -1.24 0.18 8.86 -1.82 0.25 8.58 -2.30 0.27 7.88 21.00 -1.73 -0.29 11.33 2.43 -9.24 8.00 -5.46 -12.00 6.33 2.44 -9.24 -5.32 -7.48 -9.87 -6.35 -7.47 -9.87 -1.97 0.42 -3.78 -6.94 -0.73 -6.63 1.27 0.40 8.36 0.81 0.28 8.42 0.39 -0.03 9.31 -1.75 0.05 6.62 -2.55 0.43 4.79 10.26 -4.28 -12.00 7.83 -5.27 -12.00 8.12 -7.45 -11.99 5.23 -3.71 -11.63 0.49 -1.72 -4.13 -0.01 -0.14 -4.40 -6.70 -2.09 -2.83 1.71 0.36 8.24 1.35 0.38 8.24 -2.48 0.21 2.64 7.53 -0.44 1.14 7.84 -6.26 -12.00 10.32 0.44 -9.25 2.98 2.33 -2.92 -1.50 -4.56 -3.84 -10.03 -1.07 -5.35 -2.21 1.88 -3.97 -12.01 -0.57 -4.53 2.03 0.45 7.69 1.82 0.27 7.73 1.45 0.39 7.82 -2.66 -0.20 9.34 -2.98 -0.11 6.39 -3.75 0.33 5.29 11.34 -0.57 -9.24 10.33 -0.56 -9.25 -3.82 0.81 -3.69 -0.94 0.59 -4.08 -4.53 -2.01 -2.41 2.05 0.07 6.92 1.90 -0.15 7.16 1.47 -0.07 7.35 0.78 -0.23 8.91 0.15 -0.36 9.14 -0.55 -0.32 8.99 -3.58 0.42 5.45 11.38 -1.61 -9.21 6.78 -8.29 -12.00 -1.29 0.18 -4.56 -1.17 0.93 -3.39 1.91 0.32 6.04 1.59 -0.13 6.30 1.36 -0.45 6.70 0.61 -0.55 8.94 -0.06 -0.53 9.03 -0.68 -0.56 8.93 -1.11 -0.40 8.22 -3.27 0.98 4.75 -3.13 1.91 1.97 3.73 2.23 -1.07 0.48 2.63 -2.65 -0.94 1.61 -3.14 3.78 3.76 -1.89 2.42 0.57 6.05 -0.16 -0.68 8.25 -0.76 -0.76 8.12 -1.30 -0.67 7.49 -2.32 1.31 2.21 2.62 2.40 -2.39 3.95 3.71 -2.40 3.59 3.22 -3.34 2.33 0.19 6.08 1.83 -0.50 6.94 -1.08 0.99 5.05 -1.76 0.98 3.49 -1.97 1.45 2.40 3.37 3.69 -2.88 3.80 5.07 -3.83 3.40 5.09 -3.71 2.64 3.37 -0.29 2.39 -0.36 6.08 1.92 -0.73 6.70 1.29 -0.87 6.45 -1.97 -0.15 5.74 -2.28 -0.21 5.30 -1.47 0.98 3.33 -1.80 2.06 2.48 1.24 3.03 -1.14 1.27 3.57 -0.92 1.75 7.78 -4.58 0.74 7.77 -4.57 1.97 7.52 -1.91 1.74 5.86 -1.88 2.38 0.72 5.41 1.84 -0.03 5.62 1.24 -0.02 5.44 -1.17 1.03 4.21 -1.48 0.09 4.33 -1.31 1.94 2.72 -1.31 2.27 1.96 1.09 3.55 0.37 2.85 5.98 -1.34 4.54 4.35 -1.76 0.11 8.99 -0.98 -1.50 5.51 -2.34 1.22 7.79 -1.22 0.66 7.69 -2.09 1.47 2.35 3.15 1.91 1.26 4.35 1.52 1.09 4.71 0.92 0.78 4.90 -0.84 2.14 2.11 0.56 3.68 0.98 -0.26 4.60 0.14 0.80 3.09 0.44 4.55 3.34 -1.76 3.63 3.95 -1.49 2.80 3.74 -1.42 -1.55 4.98 -3.27 -0.45 8.14 -1.18 -2.35 9.02 0.26 0.62 6.03 -1.45 2.01 4.68 1.66 1.58 1.78 3.24 1.47 1.70 3.24 0.95 1.17 3.33 -0.28 2.95 1.15 -0.03 3.09 1.09 0.22 3.51 0.71 0.19 6.37 -0.42 -0.49 6.82 -0.49 4.44 2.60 -1.76 -2.10 4.29 -3.04 -1.26 11.00 2.11 0.24 6.07 -0.49 2.10 4.89 1.80 1.71 5.15 2.16 1.13 4.19 2.59 1.01 3.86 2.45 0.63 4.06 2.12 4.02 1.98 -1.25 4.89 4.97 -1.80 4.02 6.55 -1.88 3.23 7.21 -2.03 3.84 6.00 -2.16 4.75 6.12 -2.21 0.71 9.17 -0.82 5.30 2.52 -1.25 3.84 1.90 -2.74 -2.06 3.21 -3.02 -1.26 10.00 2.11 0.05 8.10 -1.75 -0.20 10.00 -3.93 0.04 10.00 -3.82 -2.84 10.00 -5.74 -3.86 8.95 -5.89 0.02 5.81 -1.04 -0.14 5.24 -0.45 0.46 3.99 0.37 4.05 2.78 -2.30 4.58 5.90 -2.44 4.33 8.48 -3.57 3.21 9.97 -3.07 0.39 10.00 -3.37 1.23 10.00 -3.53 4.20 3.82 -1.62 3.80 3.99 0.45 4.72 5.55 1.34 -1.26 9.00 2.11 -2.11 8.47 -1.45 -0.40 9.00 -4.79 -1.64 9.00 -5.26 -2.62 9.00 -5.25 -5.99 9.00 -8.17 0.34 7.50 -3.10 3.87 3.95 -6.63 4.46 4.19 -5.64 5.06 5.87 -4.67 4.08 8.49 -4.40 3.13 8.94 -4.23 1.20 9.00 -3.69 1.05 8.95 -3.76 5.74 9.00 -3.24 4.64 9.00 -2.97 2.74 6.11 -2.13 -1.26 8.00 2.11 -2.26 8.00 2.11 0.41 8.00 -3.82 -0.16 8.00 -2.84 0.28 6.79 -0.57 0.67 7.92 -0.89 0.70 7.90 -0.57 0.82 8.00 -1.42 0.69 6.95 -0.83 1.25 7.55 -1.00 0.59 7.91 -1.29 0.71 3.75 -1.29 0.48 8.00 -3.41 2.21 8.00 -4.20 5.52 8.00 -2.92 2.63 8.00 0.66 3.11 2.96 -2.17 -1.26 7.00 2.11 1.48 7.00 -2.32 1.04 7.00 -3.01 1.13 6.88 -1.64 1.21 7.00 -1.12 0.51 7.00 -1.37 0.86 7.00 -1.35 0.42 7.00 -1.36 0.42 7.00 -0.67 0.55 7.00 -1.86 0.09 7.00 -1.74 -0.37 7.00 -1.69 -0.04 7.00 -2.01 0.59 7.00 -1.95 4.96 7.00 -2.57 3.54 6.53 -1.81 3.09 7.00 -2.64 3.10 3.93 1.44 -1.72 6.00 -3.84 1.17 6.00 -1.33 1.27 5.58 -1.05 1.35 5.89 -1.45 1.06 6.00 -1.60 0.89 5.98 -1.19 0.39 6.00 -1.29 0.28 6.00 -0.16 0.12 6.00 -1.05 -0.47 6.00 -1.72 -0.30 6.00 -1.96 -0.44 6.00 -1.87 -0.90 6.00 -1.89 0.78 5.97 -1.49 -0.47 5.96 -1.39 4.56 6.00 -2.91 2.49 5.91 -0.22 3.65 2.40 4.33 -11.67 -4.54 9.16 -11.83 -5.53 9.32 -11.93 -6.67 9.59 -9.80 -7.35 8.13 5.56 -1.94 -1.32 -10.01 0.25 5.92 -8.62 -7.57 5.85 -5.18 4.64 3.46 -6.13 4.28 3.52 -7.10 5.00 3.01 -8.11 4.81 3.17 -9.12 4.58 3.30 -9.05 4.82 1.30 -9.83 4.78 0.97 -9.14 -6.90 -0.47 -8.69 -6.86 6.38 9.68 -6.81 4.79 12.05 -6.49 2.97 14.71 -6.00 6.35 14.64 -5.88 6.79 -5.38 4.75 3.01 -6.22 4.19 3.22 -7.22 4.41 2.97 -8.06 4.14 2.77 -8.85 5.29 1.77 -9.67 5.39 1.55 -10.66 5.20 1.65 -12.59 -6.69 3.71 -8.79 -7.71 0.14 -5.73 -7.43 4.87 10.02 -6.35 5.37 12.05 -5.19 6.85 13.48 -4.80 7.43 16.61 -4.75 7.03 -3.38 4.46 2.56 -4.34 4.39 2.57 -5.27 4.59 2.37 -6.24 4.52 2.37 -7.10 5.17 1.62 -7.78 5.22 1.23 -6.81 6.77 -1.89 -8.46 5.53 -1.74 -15.98 -2.39 3.59 -13.89 -4.95 1.87 8.31 -5.61 1.84 11.55 -4.81 5.52 15.50 -4.58 6.46 17.37 -4.10 6.98 5.84 2.79 7.57 -3.39 3.79 2.46 -4.35 3.58 2.47 -5.31 4.16 2.16 -4.88 5.00 -1.34 -15.75 0.27 1.56 -15.43 -4.09 2.03 -14.32 -3.84 0.47 14.58 -3.75 2.19 15.80 -4.78 5.48 17.54 -3.94 6.11 6.79 2.82 6.95 5.83 2.53 7.03 -3.26 4.18 1.54 -3.69 3.85 -0.32 -3.59 6.07 -1.15 -4.47 5.83 -1.25 -4.49 4.76 -2.48 -15.91 -1.49 1.92 -12.11 -5.09 -1.00 -14.31 -4.31 -0.17 16.10 -3.47 1.49 15.62 -4.62 5.17 17.63 -1.87 4.65 16.98 0.75 2.63 -2.86 2.94 -1.38 -3.50 4.60 -1.34 -3.30 3.42 -2.58 -5.27 4.23 -1.63 -14.48 -0.31 -1.05 -13.67 -5.20 -0.43 -15.62 -4.71 0.42 16.86 -1.34 -1.70 16.72 -3.24 4.49 16.78 1.44 -0.02 15.75 1.85 -1.40 4.46 2.38 6.11 -3.49 2.71 -0.80 -1.72 5.11 -2.46 -15.02 0.84 -2.29 -15.01 -0.49 -2.32 -15.32 -4.09 -0.66 15.70 -3.37 5.47 15.10 -3.60 7.41 14.98 -3.38 7.30 12.31 -3.08 8.83 3.35 1.58 5.51 -15.09 -0.10 -2.27 -16.04 -0.16 -2.17 -15.28 -2.61 -1.70 12.91 -2.75 5.51 14.03 -3.08 7.49 13.58 -3.12 8.20 13.66 -2.59 8.07 4.60 1.55 3.78 -0.58 3.81 -1.51 -14.34 -0.59 -0.81 -15.16 -1.75 -2.12 -14.28 -3.24 -0.56 6.09 -2.47 -2.38 15.14 -1.45 4.07 14.83 -2.23 5.64 4.94 1.66 3.13 -12.51 -3.23 3.06 -11.46 -4.10 2.89 6.06 2.97 -1.98 8.13 1.71 -2.59 11.77 -1.62 2.51 11.72 0.32 0.61 -4.51 1.60 -2.26 1.33 1.89 -3.09 3.35 0.34 -4.22 6.64 1.82 -1.93 5.30 1.54 -2.08 4.57 1.67 -2.16 4.25 3.47 -1.56 1.27 1.59 -2.92 1.95 1.31 -3.40 4.32 3.99 -3.74 -0.16 4.37 -2.23 1.94 4.06 -3.50 3.33 2.67 -1.70 2.15 2.22 -1.60 4.89 0.74 1.17 -0.57 -4.00 -4.02 4.83 -2.21 2.47 4.36 -4.32 -0.03 -5.24 -4.29 -1.42 -6.37 -3.47 1.39 -7.87 -0.94 1.35 -8.96 1.82 1.07 1.33 4.82 7.89 0.81 5.20 8.76 0.27 5.45 9.19 -0.27 5.69 9.67 -0.87 5.72 9.74 -1.37 5.53 9.53 -1.62 5.24 9.54 -1.65 4.95 8.78 3.20 -4.51 0.67 4.47 -2.55 -1.49 -7.82 -2.37 -4.97 -9.14 -2.14 -5.35 0.76 3.41 6.12 1.47 4.84 9.00 1.12 5.08 9.54 0.46 5.11 9.98 -0.19 5.12 9.97 -0.73 5.10 9.86 -1.24 5.04 9.89 -1.62 4.98 10.07 -1.86 4.79 9.62 -2.27 4.54 8.88 4.73 -2.65 1.23 4.43 -3.59 -1.45 -12.41 -4.78 -2.66 -7.43 -3.24 -5.21 -7.24 -0.03 1.20 1.62 3.65 7.60 1.90 4.40 9.95 1.15 4.37 10.24 0.59 4.39 10.36 0.01 4.52 10.36 -0.63 4.48 10.29 -1.25 4.36 10.28 -1.71 4.27 10.28 -1.96 4.26 9.94 -2.39 4.14 9.76 -2.69 3.65 8.63 2.88 -1.14 1.01 4.45 -4.57 -1.46 20.00 -2.57 0.22 0.35 -5.55 -6.40 -8.35 1.40 2.63 -9.17 1.11 2.32 -9.09 -5.13 -4.07 2.20 2.97 7.57 2.27 3.71 9.30 1.92 3.84 9.85 1.29 3.77 10.13 0.68 3.99 10.16 0.04 4.20 10.16 -0.65 4.00 10.18 -1.30 3.70 10.26 -1.86 3.46 10.32 -2.37 3.43 10.22 -2.75 3.48 10.03 -2.85 3.22 9.71 -2.25 2.70 7.39 11.54 -5.23 -0.27 19.22 -4.35 2.84 -5.72 -6.12 -4.39 -9.95 -0.14 1.38 2.62 2.71 7.59 2.45 2.77 8.62 2.23 3.10 9.50 1.90 3.13 9.81 1.36 3.19 9.86 0.75 3.47 10.01 0.13 3.59 10.11 -0.55 3.48 10.12 -1.26 3.29 9.91 -1.25 3.08 9.65 -2.32 2.86 10.13 -2.83 2.80 10.10 -3.18 2.97 9.99 -2.93 2.32 8.89 6.24 -0.08 0.25 7.71 -4.12 0.68 16.04 -5.49 -1.61 -6.00 -6.46 -4.94 -8.86 -1.38 1.13 2.84 2.19 8.54 2.35 2.16 8.90 2.31 2.47 9.67 1.89 2.56 9.71 1.41 2.59 9.79 0.73 2.73 10.00 0.10 2.82 10.17 -0.49 2.74 10.16 -1.19 2.72 10.01 -1.44 2.72 9.79 -1.99 2.62 10.08 -2.66 2.62 10.06 -3.14 2.72 9.96 -2.71 2.51 9.83 -1.75 0.82 5.60 7.05 -1.45 -1.08 8.77 -0.99 2.53 19.00 -1.75 -0.96 -7.91 -3.16 0.64 3.46 1.92 8.68 3.04 1.62 8.76 2.47 1.57 9.08 2.30 1.75 9.58 1.78 1.82 9.60 1.44 1.87 9.83 0.73 1.96 10.07 0.02 1.97 10.21 -0.57 1.92 10.18 -1.20 1.94 10.06 -1.55 2.01 9.83 -1.94 2.03 9.63 -2.64 2.00 9.91 -3.07 2.08 9.81 -2.73 1.89 9.68 -2.04 1.22 7.35 9.22 2.52 0.42 9.92 0.43 4.34 19.00 -5.97 -0.39 -5.75 -4.25 -10.82 -9.14 -2.86 -0.26 3.80 1.42 9.11 3.28 1.34 9.14 2.62 1.17 9.34 2.23 1.27 9.62 1.75 1.26 9.67 1.41 1.19 9.76 0.68 1.25 9.95 -0.08 1.21 10.12 -0.55 1.19 10.01 -1.00 1.28 9.77 -1.57 1.32 9.55 -2.13 1.29 9.36 -2.65 1.25 9.71 -3.03 1.34 9.68 -2.83 1.24 9.62 12.26 4.59 -10.25 8.87 -1.40 -12.90 8.84 -5.21 -11.33 -5.39 -4.42 -10.59 -6.98 -2.56 -12.95 3.73 0.97 9.09 4.23 0.77 9.46 3.62 0.88 9.55 3.04 0.97 9.61 2.83 1.03 9.88 2.15 0.69 9.73 1.49 0.54 9.68 0.78 0.58 9.80 0.04 0.58 9.86 -0.49 0.58 9.79 -0.89 0.56 9.67 -1.50 0.62 9.54 -2.17 0.68 9.28 -2.66 0.54 9.38 -3.10 0.56 9.31 -3.15 0.36 9.31 9.57 0.32 0.58 11.34 3.42 -10.24 10.33 3.43 -10.25 3.98 -2.62 -13.00 -3.69 -0.75 -12.86 -6.98 -4.74 -11.31 3.46 0.78 9.02 4.05 0.41 9.39 3.57 0.44 9.53 3.13 0.58 9.58 2.74 0.58 9.79 2.14 0.49 9.37 1.64 -0.01 9.52 0.88 -0.05 9.75 0.15 -0.06 9.71 -0.49 -0.04 9.68 -1.05 -0.02 9.61 -1.63 0.03 9.45 -2.14 0.00 9.39 -2.71 -0.06 9.28 -3.19 -0.15 9.06 -3.35 -0.48 8.79 11.38 2.39 -10.21 7.20 -3.68 -12.87 9.30 2.49 -10.26 8.28 2.49 -10.27 5.09 -3.67 -13.00 6.49 2.25 -9.84 -3.18 -0.12 -9.48 -6.60 -5.20 -12.03 -7.17 -5.67 -2.11 3.54 0.45 9.02 3.26 0.30 9.35 2.97 0.23 9.35 2.52 0.19 9.45 1.81 0.24 8.66 1.47 0.19 9.39 0.91 0.12 9.35 0.29 -0.07 9.34 -0.36 -0.10 9.32 -1.06 -0.11 9.29 -1.78 -0.21 9.29 -2.40 -0.40 9.29 -2.90 -0.48 9.21 -3.27 -0.44 8.96 -3.21 -0.43 8.81 10.03 0.66 -11.75 10.17 0.73 -11.56 10.33 1.44 -10.25 7.76 0.76 -12.81 8.35 1.40 -10.23 3.76 -5.28 -13.00 6.27 1.50 -10.28 -8.88 -0.76 -7.50 -9.91 -0.77 -7.48 -7.25 -5.25 -13.00 -8.08 -3.64 -2.48 3.13 0.13 8.51 3.20 -0.01 9.15 2.77 0.16 8.93 2.22 0.09 8.96 1.73 -0.06 8.72 1.14 -0.15 9.00 0.73 -0.23 9.13 0.17 -0.31 9.09 -0.49 -0.26 9.11 -1.23 -0.15 9.12 -1.92 -0.14 9.14 -2.54 -0.24 9.18 -3.01 -0.40 9.18 -3.48 -0.61 8.94 -3.83 -0.42 8.94 8.88 -6.35 -13.00 11.34 0.43 -10.24 10.40 0.36 -10.19 5.76 -6.28 -13.00 8.25 0.60 -10.26 6.30 0.46 -10.27 -9.46 -5.73 -1.37 -9.02 -1.78 -7.38 -9.13 -7.26 -3.38 -5.63 -2.03 -9.34 -10.84 -6.41 -2.24 3.03 0.05 8.25 3.00 0.00 8.53 2.62 0.21 8.40 2.14 0.29 8.42 1.73 0.17 8.49 1.07 -0.04 8.63 0.55 -0.34 8.79 0.05 -0.22 8.79 -0.62 -0.29 8.84 -1.38 -0.27 8.84 -2.09 -0.31 8.89 -2.76 -0.40 9.02 -2.93 -0.45 9.10 -3.42 -0.50 8.85 -3.95 -0.68 8.62 12.51 -2.79 4.65 8.23 -4.99 -12.64 10.27 -0.45 -10.26 8.63 -1.33 -12.52 8.10 -0.46 -10.33 8.15 -0.76 -9.37 2.80 -7.20 -13.00 -8.28 -6.95 -1.41 -9.25 -6.98 -1.42 -10.19 -6.99 -1.42 -10.00 -1.92 -6.24 -9.24 -3.30 -4.00 -8.13 -4.39 -1.86 3.27 -0.16 8.05 3.10 -0.09 8.28 2.68 -0.03 8.33 2.11 -0.07 8.42 1.57 -0.12 8.49 0.95 -0.30 8.64 0.44 -0.39 8.69 -0.06 -0.37 8.66 -0.71 -0.41 8.63 -1.48 -0.45 8.60 -2.19 -0.54 8.64 -2.78 -0.62 8.76 -2.88 -0.45 8.53 -3.32 -0.46 8.18 -3.68 -0.74 7.92 -2.52 0.21 4.93 10.60 -4.10 -1.47 11.33 -1.56 -10.25 10.33 -1.56 -10.25 9.34 -1.58 -10.24 9.65 0.65 6.16 10.22 2.18 -2.16 -3.58 2.65 -1.18 -4.69 2.48 -1.18 -5.62 2.60 -1.13 -5.20 1.94 -3.30 -6.83 -4.12 -0.61 -7.51 -2.80 -3.86 3.16 -0.19 7.26 3