# vtk DataFile Version 2.0
VTK from Matlab
ASCII
DATASET STRUCTURED_GRID
DIMENSIONS 17046 1 1
POINTS 17046 float
28.00 76.00 11.00 30.00 76.00 11.00 25.00 77.00 11.00 26.00 77.00 11.00 24.00 78.00 11.00 25.00 78.00 11.00 26.00 78.00 11.00 29.00 79.00 11.00 30.00 79.00 11.00 33.00 79.00 11.00 23.00 80.00 11.00 31.00 80.00 11.00 23.00 81.00 11.00 29.00 91.00 11.00 29.00 92.00 11.00 36.00 93.00 11.00 35.00 94.00 11.00 36.00 94.00 11.00 35.00 95.00 11.00 33.00 55.00 12.00 32.00 73.00 12.00 30.00 74.00 12.00 32.00 74.00 12.00 34.00 74.00 12.00 27.00 75.00 12.00 29.00 75.00 12.00 34.00 75.00 12.00 25.00 76.00 12.00 26.00 76.00 12.00 27.00 76.00 12.00 29.00 76.00 12.00 30.00 76.00 12.00 25.00 77.00 12.00 26.00 77.00 12.00 27.00 77.00 12.00 23.00 78.00 12.00 24.00 78.00 12.00 23.00 79.00 12.00 24.00 79.00 12.00 25.00 79.00 12.00 24.00 80.00 12.00 28.00 80.00 12.00 29.00 80.00 12.00 23.00 81.00 12.00 26.00 81.00 12.00 27.00 81.00 12.00 28.00 81.00 12.00 29.00 81.00 12.00 30.00 81.00 12.00 31.00 81.00 12.00 32.00 81.00 12.00 35.00 81.00 12.00 36.00 81.00 12.00 37.00 81.00 12.00 22.00 82.00 12.00 23.00 82.00 12.00 24.00 82.00 12.00 25.00 82.00 12.00 26.00 82.00 12.00 27.00 82.00 12.00 28.00 82.00 12.00 29.00 82.00 12.00 35.00 82.00 12.00 37.00 82.00 12.00 38.00 82.00 12.00 22.00 83.00 12.00 23.00 83.00 12.00 24.00 83.00 12.00 25.00 83.00 12.00 26.00 83.00 12.00 27.00 83.00 12.00 28.00 83.00 12.00 29.00 83.00 12.00 32.00 83.00 12.00 33.00 83.00 12.00 35.00 83.00 12.00 37.00 83.00 12.00 39.00 83.00 12.00 22.00 84.00 12.00 23.00 84.00 12.00 24.00 84.00 12.00 25.00 84.00 12.00 26.00 84.00 12.00 27.00 84.00 12.00 28.00 84.00 12.00 29.00 84.00 12.00 30.00 84.00 12.00 32.00 84.00 12.00 33.00 84.00 12.00 34.00 84.00 12.00 37.00 84.00 12.00 38.00 84.00 12.00 39.00 84.00 12.00 40.00 84.00 12.00 22.00 85.00 12.00 23.00 85.00 12.00 24.00 85.00 12.00 25.00 85.00 12.00 26.00 85.00 12.00 27.00 85.00 12.00 28.00 85.00 12.00 29.00 85.00 12.00 31.00 85.00 12.00 32.00 85.00 12.00 33.00 85.00 12.00 34.00 85.00 12.00 35.00 85.00 12.00 37.00 85.00 12.00 38.00 85.00 12.00 39.00 85.00 12.00 40.00 85.00 12.00 23.00 86.00 12.00 24.00 86.00 12.00 25.00 86.00 12.00 26.00 86.00 12.00 27.00 86.00 12.00 28.00 86.00 12.00 29.00 86.00 12.00 30.00 86.00 12.00 31.00 86.00 12.00 32.00 86.00 12.00 33.00 86.00 12.00 34.00 86.00 12.00 35.00 86.00 12.00 36.00 86.00 12.00 37.00 86.00 12.00 38.00 86.00 12.00 39.00 86.00 12.00 24.00 87.00 12.00 25.00 87.00 12.00 26.00 87.00 12.00 27.00 87.00 12.00 31.00 87.00 12.00 32.00 87.00 12.00 33.00 87.00 12.00 34.00 87.00 12.00 35.00 87.00 12.00 36.00 87.00 12.00 37.00 87.00 12.00 24.00 88.00 12.00 25.00 88.00 12.00 26.00 88.00 12.00 27.00 88.00 12.00 28.00 88.00 12.00 30.00 88.00 12.00 31.00 88.00 12.00 32.00 88.00 12.00 34.00 88.00 12.00 35.00 88.00 12.00 36.00 88.00 12.00 37.00 88.00 12.00 38.00 88.00 12.00 39.00 88.00 12.00 25.00 89.00 12.00 26.00 89.00 12.00 27.00 89.00 12.00 28.00 89.00 12.00 29.00 89.00 12.00 30.00 89.00 12.00 31.00 89.00 12.00 32.00 89.00 12.00 33.00 89.00 12.00 34.00 89.00 12.00 35.00 89.00 12.00 36.00 89.00 12.00 37.00 89.00 12.00 24.00 90.00 12.00 26.00 90.00 12.00 27.00 90.00 12.00 28.00 90.00 12.00 29.00 90.00 12.00 30.00 90.00 12.00 31.00 90.00 12.00 33.00 90.00 12.00 34.00 90.00 12.00 35.00 90.00 12.00 36.00 90.00 12.00 37.00 90.00 12.00 38.00 90.00 12.00 23.00 91.00 12.00 25.00 91.00 12.00 26.00 91.00 12.00 27.00 91.00 12.00 28.00 91.00 12.00 29.00 91.00 12.00 30.00 91.00 12.00 31.00 91.00 12.00 32.00 91.00 12.00 34.00 91.00 12.00 36.00 91.00 12.00 26.00 92.00 12.00 28.00 92.00 12.00 29.00 92.00 12.00 30.00 92.00 12.00 31.00 92.00 12.00 32.00 92.00 12.00 30.00 93.00 12.00 31.00 93.00 12.00 32.00 93.00 12.00 33.00 93.00 12.00 34.00 93.00 12.00 28.00 94.00 12.00 32.00 94.00 12.00 29.00 57.00 13.00 33.00 57.00 13.00 29.00 72.00 13.00 30.00 72.00 13.00 31.00 72.00 13.00 32.00 72.00 13.00 33.00 72.00 13.00 26.00 73.00 13.00 27.00 73.00 13.00 30.00 73.00 13.00 31.00 73.00 13.00 32.00 73.00 13.00 33.00 73.00 13.00 35.00 73.00 13.00 36.00 73.00 13.00 37.00 73.00 13.00 26.00 74.00 13.00 27.00 74.00 13.00 29.00 74.00 13.00 30.00 74.00 13.00 31.00 74.00 13.00 33.00 74.00 13.00 34.00 74.00 13.00 36.00 74.00 13.00 38.00 74.00 13.00 27.00 75.00 13.00 35.00 75.00 13.00 36.00 75.00 13.00 38.00 75.00 13.00 26.00 76.00 13.00 36.00 76.00 13.00 37.00 76.00 13.00 38.00 76.00 13.00 25.00 77.00 13.00 38.00 77.00 13.00 25.00 78.00 13.00 24.00 79.00 13.00 23.00 81.00 13.00 24.00 81.00 13.00 39.00 81.00 13.00 22.00 82.00 13.00 23.00 82.00 13.00 24.00 82.00 13.00 38.00 82.00 13.00 39.00 82.00 13.00 22.00 83.00 13.00 24.00 83.00 13.00 25.00 83.00 13.00 26.00 83.00 13.00 27.00 83.00 13.00 28.00 83.00 13.00 36.00 83.00 13.00 37.00 83.00 13.00 38.00 83.00 13.00 39.00 83.00 13.00 22.00 84.00 13.00 24.00 84.00 13.00 25.00 84.00 13.00 26.00 84.00 13.00 27.00 84.00 13.00 28.00 84.00 13.00 32.00 84.00 13.00 33.00 84.00 13.00 36.00 84.00 13.00 37.00 84.00 13.00 38.00 84.00 13.00 39.00 84.00 13.00 22.00 85.00 13.00 23.00 85.00 13.00 24.00 85.00 13.00 25.00 85.00 13.00 26.00 85.00 13.00 27.00 85.00 13.00 30.00 85.00 13.00 31.00 85.00 13.00 32.00 85.00 13.00 33.00 85.00 13.00 34.00 85.00 13.00 37.00 85.00 13.00 38.00 85.00 13.00 39.00 85.00 13.00 22.00 86.00 13.00 23.00 86.00 13.00 24.00 86.00 13.00 25.00 86.00 13.00 26.00 86.00 13.00 30.00 86.00 13.00 31.00 86.00 13.00 32.00 86.00 13.00 33.00 86.00 13.00 34.00 86.00 13.00 38.00 86.00 13.00 39.00 86.00 13.00 40.00 86.00 13.00 22.00 87.00 13.00 23.00 87.00 13.00 24.00 87.00 13.00 25.00 87.00 13.00 26.00 87.00 13.00 33.00 87.00 13.00 34.00 87.00 13.00 35.00 87.00 13.00 36.00 87.00 13.00 38.00 87.00 13.00 40.00 87.00 13.00 23.00 88.00 13.00 24.00 88.00 13.00 25.00 88.00 13.00 26.00 88.00 13.00 34.00 88.00 13.00 35.00 88.00 13.00 36.00 88.00 13.00 39.00 88.00 13.00 40.00 88.00 13.00 41.00 88.00 13.00 22.00 89.00 13.00 24.00 89.00 13.00 25.00 89.00 13.00 27.00 89.00 13.00 28.00 89.00 13.00 29.00 89.00 13.00 30.00 89.00 13.00 34.00 89.00 13.00 35.00 89.00 13.00 36.00 89.00 13.00 41.00 89.00 13.00 42.00 89.00 13.00 24.00 90.00 13.00 25.00 90.00 13.00 28.00 90.00 13.00 29.00 90.00 13.00 30.00 90.00 13.00 31.00 90.00 13.00 32.00 90.00 13.00 34.00 90.00 13.00 35.00 90.00 13.00 25.00 91.00 13.00 29.00 91.00 13.00 30.00 91.00 13.00 31.00 91.00 13.00 32.00 91.00 13.00 33.00 91.00 13.00 38.00 91.00 13.00 25.00 92.00 13.00 29.00 92.00 13.00 30.00 92.00 13.00 31.00 92.00 13.00 32.00 92.00 13.00 33.00 92.00 13.00 29.00 93.00 13.00 30.00 93.00 13.00 31.00 93.00 13.00 32.00 93.00 13.00 33.00 93.00 13.00 34.00 93.00 13.00 29.00 94.00 13.00 30.00 94.00 13.00 31.00 94.00 13.00 32.00 94.00 13.00 34.00 94.00 13.00 31.00 95.00 13.00 30.00 51.00 14.00 30.00 52.00 14.00 12.00 53.00 14.00 26.00 53.00 14.00 30.00 53.00 14.00 31.00 53.00 14.00 13.00 54.00 14.00 30.00 54.00 14.00 11.00 55.00 14.00 12.00 55.00 14.00 13.00 55.00 14.00 14.00 55.00 14.00 30.00 55.00 14.00 31.00 55.00 14.00 32.00 55.00 14.00 14.00 56.00 14.00 30.00 56.00 14.00 50.00 56.00 14.00 26.00 57.00 14.00 30.00 57.00 14.00 50.00 57.00 14.00 29.00 58.00 14.00 30.00 58.00 14.00 31.00 58.00 14.00 32.00 58.00 14.00 30.00 59.00 14.00 29.00 60.00 14.00 30.00 60.00 14.00 30.00 71.00 14.00 31.00 71.00 14.00 32.00 71.00 14.00 29.00 72.00 14.00 31.00 72.00 14.00 32.00 72.00 14.00 33.00 72.00 14.00 34.00 72.00 14.00 35.00 72.00 14.00 23.00 73.00 14.00 25.00 73.00 14.00 26.00 73.00 14.00 27.00 73.00 14.00 28.00 73.00 14.00 29.00 73.00 14.00 30.00 73.00 14.00 31.00 73.00 14.00 32.00 73.00 14.00 33.00 73.00 14.00 34.00 73.00 14.00 35.00 73.00 14.00 36.00 73.00 14.00 38.00 73.00 14.00 27.00 74.00 14.00 36.00 74.00 14.00 37.00 74.00 14.00 25.00 75.00 14.00 26.00 75.00 14.00 37.00 75.00 14.00 25.00 76.00 14.00 26.00 76.00 14.00 38.00 76.00 14.00 25.00 77.00 14.00 39.00 77.00 14.00 22.00 78.00 14.00 24.00 78.00 14.00 39.00 78.00 14.00 23.00 79.00 14.00 24.00 79.00 14.00 22.00 80.00 14.00 23.00 80.00 14.00 22.00 81.00 14.00 23.00 81.00 14.00 39.00 81.00 14.00 21.00 82.00 14.00 22.00 82.00 14.00 39.00 82.00 14.00 21.00 83.00 14.00 22.00 83.00 14.00 39.00 83.00 14.00 40.00 83.00 14.00 22.00 84.00 14.00 23.00 84.00 14.00 39.00 84.00 14.00 22.00 85.00 14.00 23.00 85.00 14.00 39.00 85.00 14.00 22.00 86.00 14.00 23.00 86.00 14.00 39.00 86.00 14.00 22.00 87.00 14.00 23.00 87.00 14.00 21.00 88.00 14.00 23.00 88.00 14.00 19.00 89.00 14.00 20.00 89.00 14.00 22.00 89.00 14.00 40.00 89.00 14.00 41.00 89.00 14.00 45.00 89.00 14.00 20.00 90.00 14.00 21.00 90.00 14.00 22.00 90.00 14.00 40.00 90.00 14.00 41.00 90.00 14.00 42.00 90.00 14.00 23.00 91.00 14.00 38.00 91.00 14.00 40.00 91.00 14.00 23.00 92.00 14.00 38.00 92.00 14.00 39.00 92.00 14.00 40.00 92.00 14.00 24.00 93.00 14.00 36.00 94.00 14.00 27.00 95.00 14.00 28.00 95.00 14.00 30.00 95.00 14.00 31.00 95.00 14.00 35.00 95.00 14.00 12.00 51.00 15.00 13.00 51.00 15.00 14.00 51.00 15.00 12.00 52.00 15.00 13.00 52.00 15.00 14.00 52.00 15.00 30.00 52.00 15.00 31.00 52.00 15.00 14.00 53.00 15.00 30.00 53.00 15.00 31.00 53.00 15.00 11.00 54.00 15.00 14.00 54.00 15.00 15.00 54.00 15.00 30.00 54.00 15.00 14.00 55.00 15.00 15.00 55.00 15.00 29.00 55.00 15.00 32.00 55.00 15.00 14.00 56.00 15.00 15.00 56.00 15.00 30.00 56.00 15.00 14.00 57.00 15.00 15.00 57.00 15.00 30.00 57.00 15.00 32.00 57.00 15.00 50.00 57.00 15.00 25.00 58.00 15.00 50.00 58.00 15.00 29.00 59.00 15.00 31.00 59.00 15.00 32.00 59.00 15.00 33.00 59.00 15.00 50.00 59.00 15.00 29.00 60.00 15.00 30.00 60.00 15.00 29.00 61.00 15.00 30.00 61.00 15.00 30.00 62.00 15.00 31.00 62.00 15.00 32.00 70.00 15.00 33.00 70.00 15.00 30.00 71.00 15.00 31.00 71.00 15.00 32.00 71.00 15.00 33.00 71.00 15.00 34.00 71.00 15.00 35.00 71.00 15.00 24.00 72.00 15.00 25.00 72.00 15.00 27.00 72.00 15.00 28.00 72.00 15.00 29.00 72.00 15.00 30.00 72.00 15.00 31.00 72.00 15.00 32.00 72.00 15.00 33.00 72.00 15.00 34.00 72.00 15.00 35.00 72.00 15.00 36.00 72.00 15.00 37.00 72.00 15.00 22.00 73.00 15.00 24.00 73.00 15.00 25.00 73.00 15.00 26.00 73.00 15.00 24.00 74.00 15.00 25.00 74.00 15.00 26.00
[...]
POINT_DATA 17046
VECTORS vector_field float
2.93 2.43 0.15 0.96 3.78 -2.27 -2.93 4.90 -2.18 -3.75 4.44 -1.94 1.80 2.03 -3.17 -0.03 3.58 -3.13 1.46 3.41 -0.73 2.52 3.46 -1.84 0.94 3.96 -2.72 0.84 3.92 -1.67 -5.60 0.39 1.64 -0.18 3.14 -2.82 -4.55 0.16 1.55 2.52 -0.90 -2.63 1.39 0.53 -2.93 -0.84 0.93 -3.59 -0.32 1.20 -4.99 -1.34 0.47 -4.11 -0.33 0.18 -4.98 6.33 -0.23 4.23 7.92 -2.36 -1.65 3.08 0.19 -3.08 7.90 -3.30 -1.64 5.76 -2.75 -1.49 -4.78 -1.13 1.60 -0.43 -3.13 -0.24 3.71 1.82 0.33 -4.91 -0.84 1.43 -5.85 -0.86 1.59 -6.13 -1.63 1.83 3.41 1.90 -0.89 3.85 1.34 -1.00 -5.89 -0.68 2.32 -4.33 0.42 1.91 -4.31 0.52 1.16 -6.47 0.91 0.29 -6.71 0.47 2.01 -7.46 1.53 0.48 -3.16 1.14 1.37 0.20 2.83 1.47 -4.65 1.04 1.11 1.20 1.82 8.26 1.00 2.05 9.29 -6.47 0.43 1.00 2.62 2.03 2.58 1.97 1.61 5.06 1.49 1.43 8.21 0.94 1.59 7.49 1.09 2.41 4.23 0.59 2.10 5.00 -0.02 2.25 4.02 0.96 3.26 0.68 1.48 4.29 0.46 2.43 6.02 1.10 -7.23 -0.66 -0.82 -5.79 -0.05 1.20 4.64 2.18 -0.47 4.76 2.73 -0.93 2.39 1.36 -3.64 4.79 2.02 -0.90 3.34 0.95 -3.26 2.60 0.96 -3.26 -1.56 2.83 -0.80 0.68 2.30 -2.12 3.56 5.07 1.51 -5.52 -0.49 -0.11 0.78 1.91 -3.02 1.19 1.21 -3.20 1.68 1.22 -2.84 0.53 1.16 -3.27 3.87 2.95 -2.90 3.61 2.34 -2.76 2.24 1.27 -2.97 1.53 4.56 -0.67 0.77 4.56 -0.43 -1.15 3.11 -0.68 -1.26 -0.54 -2.96 0.92 4.11 1.19 -5.80 -1.09 -0.12 1.16 0.77 -3.48 1.44 0.14 -3.42 0.87 0.48 -2.86 1.08 0.64 -3.18 3.42 1.56 -1.20 3.52 1.80 -2.96 2.76 1.39 -2.62 1.05 1.29 4.47 1.43 3.30 -2.42 0.52 3.72 -2.29 -0.36 4.49 -0.97 -2.00 -0.45 -3.57 -0.50 -0.05 -3.39 -1.40 -0.20 -3.27 2.38 3.51 1.42 -3.89 -0.59 0.17 0.61 0.22 -3.33 1.77 0.06 -3.44 0.77 0.03 -3.11 0.89 0.19 -3.19 3.81 0.96 0.29 3.11 -0.10 -1.34 2.34 0.61 -2.46 2.11 1.96 -3.07 -1.47 2.51 -3.77 0.18 2.08 -3.22 -0.06 3.70 -1.53 -0.33 3.48 -0.63 -0.51 -0.17 -3.66 -0.75 -0.02 -3.49 -1.42 1.00 -3.00 -2.00 1.19 -2.72 0.42 0.07 -3.39 0.89 -0.15 -3.31 0.35 -0.53 -3.11 0.70 -0.57 -3.13 3.41 1.55 -2.30 2.91 0.61 0.80 3.12 1.85 -1.77 1.94 1.31 -2.05 0.96 1.27 -3.67 0.02 1.27 -3.68 -0.04 0.67 -3.21 0.33 2.91 -0.97 0.07 3.67 -0.77 -0.69 3.63 -0.53 -1.83 0.31 -3.47 -0.13 0.52 -3.16 -0.87 0.66 -3.27 0.53 0.47 -3.43 0.35 -0.87 -3.05 3.00 2.05 -1.64 3.03 1.98 -2.58 0.27 -0.06 7.21 -0.09 -0.27 4.67 -0.90 -0.35 -3.49 -1.85 -0.72 -3.31 -0.24 3.12 -1.40 -1.08 3.24 -1.31 -1.80 3.11 -0.97 -0.87 0.50 -3.14 1.94 -0.22 -3.52 5.09 -0.22 -3.19 4.01 -0.21 -3.10 4.13 -0.41 -3.01 0.79 0.30 3.33 0.23 -0.40 7.31 -0.39 -0.25 7.04 0.41 -1.48 -3.17 -2.40 -1.50 -3.34 -1.05 -0.33 -3.22 -1.83 -0.61 -3.16 -1.97 2.86 -0.83 0.98 1.47 -2.82 5.23 0.93 -3.14 3.97 0.18 -3.05 2.41 -1.13 -3.50 2.87 -0.13 -3.43 2.12 0.52 -3.56 1.16 0.60 -3.59 0.29 0.59 -3.54 -0.36 -0.17 6.54 -0.46 0.51 5.37 0.81 1.20 -2.73 -3.10 0.14 -3.27 -3.66 1.41 -3.36 -2.53 3.41 -3.28 -0.01 0.51 -3.38 4.43 0.12 -3.13 2.82 1.71 1.01 3.37 0.23 -3.26 2.01 -0.56 -3.42 1.37 -0.39 -3.46 1.55 1.21 -3.09 -0.82 0.21 -3.30 -1.80 0.43 -3.33 -2.83 0.55 -3.55 -3.36 0.63 -3.33 -1.37 3.54 -3.41 -2.17 2.98 -2.66 -1.11 0.31 -3.02 1.39 5.10 -5.05 2.05 4.16 -4.96 2.85 3.90 1.25 2.21 3.12 0.72 2.27 0.09 -3.51 2.13 0.54 -3.27 1.20 0.59 -3.43 0.95 0.38 -3.08 -0.20 1.52 2.97 -1.20 2.26 -4.37 2.88 4.24 3.08 3.85 2.39 -0.78 3.19 1.87 -1.26 2.42 0.41 -3.38 1.76 -0.65 -3.21 1.47 0.20 -2.73 1.76 -0.57 -3.67 1.03 0.22 -3.57 0.22 0.98 -3.53 1.02 1.48 -5.37 1.12 2.17 -2.37 5.58 2.00 -0.88 2.51 1.58 -4.94 -1.54 -1.10 -3.04 -1.96 0.38 -3.46 2.40 -3.61 -2.02 1.39 -3.86 -1.99 7.52 -4.62 -1.36 -0.59 -3.70 -2.03 -2.09 -2.45 -1.65 -0.31 -3.11 -1.31 -4.75 -1.69 0.73 -0.63 -2.91 -2.02 0.39 -4.88 -1.97 -0.23 4.98 8.33 -0.34 2.97 5.44 4.91 -1.64 -3.28 4.00 -2.72 -2.73 3.00 -2.71 -2.74 -4.11 -0.84 -3.53 -6.62 -0.57 0.41 0.30 3.57 6.64 0.05 4.13 7.37 -0.17 3.89 7.77 -0.97 4.57 8.28 -0.95 3.36 6.58 3.49 -3.28 -2.22 1.33 -1.46 -3.36 -6.74 -0.80 0.66 -1.62 3.56 7.18 3.18 2.07 -0.55 1.39 -2.67 -2.30 -5.89 -0.82 0.42 -1.89 2.70 6.26 -1.41 1.67 4.68 6.02 2.17 -0.53 -7.32 -0.09 1.24 -1.73 1.31 4.86 0.48 1.93 4.93 -7.53 0.34 1.52 -7.99 -0.47 1.15 2.84 1.01 8.11 1.62 2.33 1.71 -7.46 -2.57 -1.50 -7.74 -0.96 -0.31 2.83 0.81 7.85 -3.52 0.06 8.36 -2.98 -0.59 5.31 -7.37 -1.77 -1.37 2.77 0.51 6.19 2.88 0.77 7.49 2.76 0.65 8.32 2.36 0.63 8.88 1.85 0.57 8.88 -3.20 -0.07 8.65 -3.63 -0.36 8.78 -3.65 -0.29 7.78 -1.30 -0.19 3.02 -7.76 -2.47 -1.02 2.61 0.66 4.48 2.76 0.51 6.56 2.69 0.35 7.99 2.18 0.41 8.67 1.62 0.40 8.63 -0.36 -0.04 9.14 -1.10 0.10 7.80 -3.07 -0.21 6.38 -3.61 -0.53 8.39 -3.88 -0.44 7.68 2.55 3.10 0.80 -8.02 -2.51 -0.61 1.57 2.74 -0.63 2.59 0.92 4.55 2.81 0.50 6.36 2.60 0.35 7.71 2.05 0.42 8.31 0.91 0.27 8.72 0.25 0.01 9.54 -0.44 0.01 9.49 -1.26 0.11 8.06 -1.98 0.26 5.90 -3.69 -0.03 5.94 -4.06 -0.41 7.51 -3.90 -0.15 5.55 -7.34 -2.19 -0.96 2.84 4.05 -1.04 2.79 1.70 3.61 2.88 0.65 5.47 2.60 0.36 7.04 0.84 0.08 9.27 0.24 0.04 9.18 -0.48 0.01 9.23 -1.25 -0.06 8.23 -1.90 -0.08 9.11 -4.25 0.29 5.87 -2.48 0.99 2.79 3.53 3.03 1.73 -6.84 -2.32 -0.49 3.08 3.79 -1.27 3.56 3.30 0.56 3.16 1.21 3.46 2.62 0.45 6.08 -1.11 -0.27 7.55 -1.94 -0.23 8.41 -2.75 -0.33 8.91 -2.99 -0.17 7.41 -3.51 0.73 4.02 3.03 2.55 1.65 2.38 3.95 -1.90 3.98 3.93 -1.99 2.71 1.43 3.51 2.53 0.68 5.37 -1.67 0.14 6.10 -2.44 -0.22 6.98 -3.06 -0.14 6.79 -0.08 3.18 -0.37 -0.29 3.49 -0.54 2.27 2.49 1.75 2.78 2.93 -1.76 3.24 3.90 -1.82 2.47 1.34 4.76 1.70 -0.05 7.30 1.42 -0.23 7.52 0.86 0.01 6.54 0.51 -0.85 8.61 -1.96 -0.57 7.11 -2.53 -0.38 6.79 -3.13 0.00 6.27 1.88 2.42 1.79 -0.03 1.64 -3.90 3.35 3.65 -1.78 2.50 0.64 5.51 1.27 -0.63 6.89 0.71 -0.63 6.81 0.55 -0.87 7.45 0.09 -0.82 6.80 -0.50 0.22 5.75 -1.47 0.91 4.84 -1.62 0.95 4.05 2.62 1.04 4.69 0.54 -0.94 6.37 -0.39 0.24 5.45 -0.08 0.70 5.48 -0.49 0.91 5.09 -1.22 0.77 5.15 1.40 3.39 -1.39 2.20 1.42 4.19 0.48 -0.08 5.40 -0.25 0.75 4.67 0.12 1.03 5.05 -0.41 0.73 5.07 -1.00 0.74 4.73 0.48 0.31 4.98 -0.05 0.83 4.33 0.25 0.90 4.28 -0.18 1.05 3.82 -0.57 0.95 3.75 -1.12 1.42 3.51 0.44 0.41 4.31 0.38 0.57 3.98 0.89 1.18 3.46 2.72 2.22 -0.94 -0.50 2.60 2.01 4.86 2.01 -1.75 -8.45 -6.43 2.26 -5.41 -4.99 1.46 -2.29 4.12 1.72 -1.14 -0.69 -2.81 -9.33 -5.92 0.81 10.28 -2.92 1.07 -2.88 2.83 0.70 -7.83 -5.27 -0.33 -1.24 2.52 1.65 -2.27 2.34 1.46 -2.39 2.51 -0.97 -3.17 2.60 -0.92 -11.57 -5.83 1.19 3.43 -0.95 1.61 10.61 -2.54 2.93 -3.01 2.09 -0.48 -10.51 -4.91 2.58 3.73 1.54 3.19 -1.63 -0.27 -2.60 -6.05 -2.04 1.45 3.98 1.66 3.73 -4.42 -2.29 -4.83 0.52 1.98 -2.41 0.99 0.58 -3.37 -0.59 -1.12 -2.87 3.83 2.11 -1.60 -3.55 1.14 3.70 2.28 3.79 -3.20 0.29 -2.48 -1.70 0.44 -2.94 -2.86 -0.60 -2.74 -3.03 -0.03 -1.97 -3.05 0.54 3.15 4.78 -0.58 -3.56 -3.00 -0.13 2.79 4.17 -0.15 3.84 5.62 0.42 2.85 4.23 4.33 -3.47 -3.18 -5.56 -4.76 -1.25 -5.61 -3.45 -0.60 -5.42 -1.52 0.59 0.90 3.40 5.95 0.71 4.44 7.57 0.35 5.52 8.93 -0.18 5.83 9.25 -0.69 5.80 9.65 -1.18 5.38 9.58 -1.24 5.02 8.81 -1.47 4.39 7.51 -0.13 2.20 4.11 3.35 0.90 1.04 0.16 2.40 5.06 -1.76 3.38 6.67 -0.71 1.39 3.97 -5.49 -0.46 -1.37 -6.45 -0.37 -0.66 -2.08 2.70 6.23 -6.67 -2.05 3.21 1.44 3.26 6.72 -2.18 1.26 5.44 1.91 3.10 6.72 5.76 0.77 1.31 -9.43 1.12 3.79 2.57 2.72 6.88 5.87 1.46 0.42 1.95 2.33 7.26 3.29 2.44 8.33 -9.25 -0.55 2.83 2.76 2.13 8.21 -9.23 -1.66 1.92 3.52 1.71 8.91 -2.44 0.57 7.88 -8.69 -2.40 3.55 0.83 -0.40 6.49 -2.89 -0.08 8.04 -8.61 -3.91 1.51 0.36 -1.39 5.49 -3.44 -0.58 7.89 5.23 1.52 3.18 -8.61 -2.86 -0.16 3.11 0.46 8.86 -3.52 -0.75 7.12 -9.87 -4.37 -0.78 2.56 0.26 7.93 -3.78 -0.62 8.01 -9.24 -4.40 -1.24 1.67 0.37 5.18 -3.93 -0.64 7.62 -7.93 -3.95 -0.91 1.21 0.28 4.25 -6.82 -3.73 -2.30 1.70 0.32 4.25 -6.16 -4.83 -0.67 -5.94 -3.89 -1.54 2.03 2.50 -1.80 2.30 2.95 0.38 1.89 2.51 0.92 0.57 1.61 -3.60 2.75 0.84 -0.94 2.82 2.49 -2.36 2.26 3.43 -3.37 0.51 3.56 -0.39 0.42 3.53 0.19 1.20 2.78 1.66 3.57 0.36 4.15 -2.69 -1.15 5.29 1.14 3.60 -0.58 1.89 5.04 -2.28 -2.17 -0.61 4.08 0.80 3.42 0.34 4.53 4.39 -2.70 0.59 3.93 -0.23 -1.46 -0.11 2.89 1.32 -0.25 3.07 1.19 0.00 3.04 0.30 -0.17 3.07 0.41 -1.02 3.73 -1.40 -0.21 2.68 -2.52 3.86 2.16 -3.37 3.58 2.26 -4.22 3.22 2.26 -2.57 3.20 1.98 -3.56 3.15 2.01 -4.45 2.95 2.02 -4.21 -5.17 2.17 9.46 -2.71 2.61 -4.30 2.86 1.50 -6.96 -5.57 2.01 9.56 -1.81 1.95 -1.59 3.65 1.11 -3.80 2.01 0.94 -4.79 1.82 1.46 -5.89 -4.94 -0.04 -3.15 1.74 0.07 -3.95 2.40 -0.81 -15.08 -2.97 -2.14 -0.99 -0.62 3.61 -2.82 1.84 -0.27 -3.64 2.15 -1.32 0.60 -1.34 4.29 -2.61 1.65 -0.29 -2.13 3.45 -2.22 0.66 -1.70 4.24 -0.66 -1.95 2.64 3.93 1.43 3.03 -0.58 2.86 -3.39 4.03 0.93 2.53 -2.50 -1.63 0.63 4.19 -0.62 -0.83 5.15 4.42 -3.30 4.79 4.14 -3.31 3.09 0.27 1.47 -4.99 0.81 3.13 2.49 3.42 0.19 -7.11 3.26 3.84 2.26 2.95 3.15 -0.80 3.76 -0.88 1.17 3.33 -4.29 2.01 -1.73 -1.86 3.24 -2.05 -2.44 0.14 -0.20 -4.19 0.39 -2.89 -3.97 -0.59 -2.90 -3.94 2.81 -1.63 -2.16 2.44 -2.27 -1.94 1.82 -2.48 -1.50 -4.48 0.17 2.48 -4.57 -3.60 -0.77 0.28 1.83 3.35 0.62 1.71 3.43 0.67 3.88 5.36 0.36 5.07 7.52 -0.05 5.13 7.89 -0.28 4.95 7.83 -0.71 5.15 7.78 -0.79 4.89 7.18 -1.24 4.85 7.05 -1.65 4.73 6.69 -0.88 3.30 4.68 1.43 -3.61 -5.07 -5.28 -1.67 1.95 -5.29 -1.39 1.30 0.55 3.52 5.41 -5.76 -2.21 1.91 0.26 1.69 4.17 1.78 4.85 7.15 -7.16 0.46 0.41 1.78 3.95 6.85 -2.70 3.94 7.33 3.93 -5.28 0.43 -5.37 -0.71 2.05 0.46 1.76 5.31 2.88 3.86 7.31 4.76 -3.24 0.35 4.45 -4.57 -2.46 2.48 3.89 7.77 3.40 3.83 7.70 -2.18 2.87 6.78 -7.94 1.70 4.41 1.73 2.54 7.03 -8.59 -0.32 3.09 3.12 2.55 8.26 -1.40 1.75 7.05 -9.66 -0.32 4.51 -2.04 1.22 7.53 -1.02 -1.82 4.76 -2.43 0.59 8.00 -9.32 -1.97 5.27 2.43 0.12 7.56 -2.77 0.04 8.28 -5.35 -3.36 1.99 -2.72 -0.35 7.98 -8.45 -4.40 1.14 2.59 0.14 8.63 -2.74 -0.61 8.05 -11.04 -5.79 0.10 2.64 -0.28 8.12 -2.93 -0.84 7.55 3.03 -0.52 7.80 -3.05 -1.05 7.40 -8.18 -5.79 -1.15 3.52 -0.74 7.25 -3.16 -1.17 6.86 -6.38 -4.46 -2.63 -2.07 -3.20 -0.96 3.80 -0.91 6.05 -3.00 -1.32 5.83 -1.67 5.90 -0.63 -4.93 -5.56 -1.04 -5.74 -5.12 -1.58 1.64 2.64 -1.77 -3.06 -1.45 5.17 2.64 2.33 1.50 2.02 1.74 1.42 2.36 4.93 -1.27 2.40 4.63 -1.65 -2.59 -1.97 5.08 -3.05 -0.85 3.89 2.73 2.51 1.13 3.81 6.04 1.29 2.01 -0.17 3.07 -2.21 -0.11 2.87 1.45 3.34 -0.12 1.41 4.44 -1.10 4.40 3.39 -3.79 -3.41 5.60 -1.84 -5.20 0.35 3.47 -2.10 2.89 2.23 -3.11 3.10 1.75 -4.03 2.70 1.50 -3.81 1.48 1.70 -4.54 0.57 2.09 -2.25 2.52 1.94 -3.15 2.37 1.71 -4.13 2.26 1.60 -4.98 1.68 1.63 -4.59 0.82 2.49 -1.74 3.00 1.79 -2.58 2.89 1.34 -3.32 2.52 1.28 -4.13 1.61 1.54 -5.04 1.11 1.71 -4.94 0.38 2.18 -1.57 2.95 0.99 -2.57 2.14 1.23 -3.26 1.74 1.09 -3.86 1.21 1.10 -4.70 1.08 1.67 -5.29 0.70 2.14 -1.61 2.81 0.57 -2.91 1.87 0.85 -4.07 1.53 1.04 -4.87 1.39 1.18 -5.59 0.81 1.84 -3.66 1.02 0.71 -4.30 1.21 0.80 -5.17 1.43 0.52 -3.57 1.73 -0.12 -4.46 1.76 -0.25 -5.17 2.05 -0.61 0.24 -1.52 6.01 -3.62 1.31 -0.56 -4.04 1.47 -0.83 0.43 -2.17 5.14 4.90 1.36 2.15 4.00 1.30 2.55 3.05 1.28 2.81 2.07 1.43 2.23 -3.41 0.61 -0.69 -3.21 1.07 -1.43 4.84 0.95 1.15 3.91 0.94 1.32 3.23 1.08 2.44 2.33 0.88 2.78 4.59 0.56 0.89 3.86 0.51 1.04 2.92 0.42 1.09 1.68 4.08 2.88 4.70 4.02 3.12 1.00 2.85 -3.86 1.42 -1.62 -5.02 0.39 -1.89 -4.97 4.47 -1.35 -3.52 3.14 -1.48 -3.22 2.12 -1.65 -2.73 -5.34 -2.89 -3.53 0.39 2.41 2.30 0.47 5.51 6.54 0.02 5.19 6.20 -0.01 5.45 6.12 -0.08 5.24 5.80 0.74 3.80 3.35 1.31 -2.20 -1.91 -4.77 0.08 4.32 -4.71 -1.43 0.46 -0.03 2.67 3.32 1.00 5.42 7.57 -0.41 5.96 8.93 -5.05 -2.38 0.06 -4.42 -1.05 3.01 0.96 3.19 5.02 -4.56 -0.15 1.78 1.54 3.07 5.50 -2.02 3.42 5.85 -4.96 -1.23 0.56 2.03 3.41 5.68 3.09 4.49 6.97 -3.36 4.66 7.50 1.20 3.06 5.38 3.17 4.11 6.85 -1.18 3.20 5.40 3.36 4.15 7.02 -2.24 3.94 6.86 7.83 0.12 -0.02 -0.26 2.92 5.78 2.38 2.79 6.47 -1.09 2.97 6.61 -0.98 2.18 6.77 -0.39 1.40 7.09 0.69 0.40 4.66 -1.29 0.71 7.30 -0.04 -0.09 5.02 -1.98 0.14 7.41 -2.65 -0.13 8.34 -1.83 -0.28 7.61 -2.84 -0.72 8.21 -1.08 -0.82 7.71 2.80 -0.54 7.73 -1.77 -1.38 7.59 3.07 -0.88 7.01 -2.54 -1.59 7.41 -8.79 -6.52 -0.62 3.77 -1.19 7.13 -3.01 -1.82 6.65 -6.70 -9.54 -1.48 -6.97 -5.41 -1.53 4.44 -1.46 6.76 -3.01 -1.78 5.73 -1.82 4.92 0.66 -5.17 -6.05 -1.61 -4.82 -4.82 -2.22 4.85 -1.66 5.67 -3.02 -1.31 4.31 1.63 2.39 -1.69 1.17 4.37 -1.89 -2.79 -1.15 3.20 3.40 -0.11 2.73 -3.00 -2.22 3.76 -2.75 -1.30 2.47 1.82 3.10 0.50 -1.05 4.92 -5.66 3.97 0.88 1.47 3.71 -0.38 1.62 3.28 0.33 0.88 -4.71 1.30 2.83 -4.09 1.01 3.51 -4.51 1.32 2.91 -4.65 0.96 2.59 -3.82 1.16 3.05 -4.23 0.81 3.31 -4.02 0.60 4.18 -3.80 1.21 3.55 -4.23 0.40 2.56 -3.69 0.67 2.20 -3.80 0.93 2.71 -3.99 0.93 3.54 -4.27 0.11 5.11 -1.90 2.28 1.40 -2.78 0.76 1.15 -3.21 1.04 2.35 -4.02 0.93 2.81 -4.78 0.79 3.26 -4.80 0.57 4.30 -3.28 1.10 0.95 -3.60 0.81 1.86 -3.90 0.55 2.85 -4.57 0.44 3.42 -5.21 0.23 3.89 -3.10 0.68 1.22 -3.90 0.25 1.60 -4.20 0.22 2.60 -4.34 0.22 3.46 -4.78 0.11 4.12 -3.56 0.93 1.11 -3.84 0.30 1.42 -4.45 0.38 1.87 -5.07 0.33 2.74 -5.26 -0.19 3.71 -3.60 0.77 0.99 -4.44 0.31 1.17 -4.89 0.14 1.39 -5.57 0.00 1.64 -2.97 0.39 0.77 -3.78 0.14 0.88 -4.56 0.17 1.03 -5.13 0.25 1.45 -3.12 0.29 0.44 -3.93 0.20 0.48 -4.85 0.30 0.50 -5.86 0.41 0.65 -3.43 0.77 -0.85 -4.27 0.58 -0.72 -5.29 0.84 -1.09 4.80 0.85 3.01 3.89 0.81 3.20 3.00 0.62 3.70 -3.56 0.52 -1.17 -4.37 0.44 -1.22 -5.23 0.46 -1.30 5.77 1.08 0.17 4.80 0.90 0.47 3.86 0.77 0.75 3.08 0.85 1.54 2.39 0.60 2.06 -3.28 0.16 -1.32 -3.24 0.14 -1.61 5.67 0.44 0.06 4.75 0.34 0.29 3.84 0.31 0.39 2.98 0.48 0.43 -13.14 0.96 1.41 -2.64 1.16 -5.97 -9.34 0.86 -0.74 0.73 5.52 -3.30 0.36 2.22 -3.88 0.15 0.65 -5.31 -1.10 1.60 -2.47 0.30 1.93 -2.89 0.16 1.41 -2.91 -1.22 -1.13 -3.00 -0.83 -0.43 -3.79 4.21 1.00 -4.14 2.66 -0.43 -2.52 -1.38 -1.18 -3.03 -0.03 1.38 -5.72 -1.15 2.00 -6.24 1.43 5.39 1.73 4.14 -0.34 -3.18 3.10 -0.92 -2.82 2.21 -0.95 -2.68 -1.00 -3.39 -5.76 -1.66 -3.75 -5.43 0.48 6.11 5.74 -0.04 6.14 5.95 0.12 6.49 6.22 0.29 6.00 5.13 2.42 1.71 -1.66 2.43 -1.52 -2.97 1.42 -1.77 -2.54 0.61 -1.62 -2.63 -5.08 2.00 1.25 -3.78 0.95 5.00 -5.65 -0.00 0.14 -5.54 -2.90 -2.88 0.42 4.16 4.53 1.06 5.55 6.37 1.11 5.94 7.11 0.69 6.24 7.80 -1.16 6.36 7.06 -1.43 5.84 6.45 -4.89 -0.31 3.82 -2.97 5.42 6.76 9.11 0.46 1.82 -6.03 -1.90 -0.61 -4.65 0.78 1.62 -4.83 -1.60 0.07 0.90 2.77 3.68 2.01 3.72 4.84 -0.52 4.57 4.42 -1.51 5.00 5.66 0.06 2.98 3.83 -0.17 3.51 4.89 3.04 2.66 5.53 0.53 1.67 6.26 0.78 0.90 6.58 0.58 0.49 6.91 0.41 -1.03 3.40 -0.98 0.02 7.61 -0.47 -0.07 6.63 -1.35 -0.54 7.98 -0.94 -0.79 6.32 3.12 -1.00 6.45 0.21 0.04 6.28 -1.21 -1.18 6.36 3.51 -1.17 5.57 0.20 -0.45 6.15 0.04 -0.43 6.09 -0.65 -0.52 6.11 -1.82 -1.90 6.65 3.76 -1.41 5.47 -0.07 -0.89 6.04 -0.78 -0.94 6.02 -1.49 -1.00 6.07 -2.55 -1.73 6.99 4.69 -1.11 2.96 -8.63 -8.89 -3.25 -6.43 -6.43 -1.72 4.28 -1.54 5.41 -0.22 -1.11 5.94 -0.91 -1.11 5.83 -3.30 -2.36 6.05 -5.02 -6.02 -2.43 4.49 -1.64 3.63 -2.51 -1.48 4.60 4.48 -0.90 2.48 -2.46 -0.78 2.85 1.53 4.50 -2.19 -0.35 4.88 -3.23 4.44 -0.42 0.79 3.81 0.86 0.11 3.31 -0.43 0.08 3.20 4.45 1.33 3.39 1.98 0.40 3.05 3.45 1.19 3.72 2.34 0.40 -3.70 -2.99 0.37 3.48 -2.46 -1.10 -4.23 2.63 1.90 -4.39 1.69 1.77 -3.13 1.47 2.90 -2.89 1.21 4.25 -2.91 0.72 5.34 -2.80 0.35 6.18 -3.03 -0.28 6.59 -4.18 1.77 1.89 -2.38 1.31 2.39 -2.80 1.36 2.65 -2.88 1.25 3.56 -3.04 0.81 4.84 -3.26 0.24 5.65 -3.32 -0.04 6.24 -2.89 0.63 1.86 -2.05 0.97 2.54 -2.91 0.79 2.51 -2.96 0.67 3.88 -3.10 0.43 4.67 -3.52 0.12 5.09 -3.76 -0.37 5.83 3.27 3.63 3.95 -1.51 2.66 2.31 -2.61 1.19 2.16 -2.55 0.54 3.68 -3.28 0.27 4.31 -3.74 0.10 4.69 -3.87 -0.11 5.02 -4.07 -0.58 5.21 3.29 2.69 3.26 -2.98 0.84 2.12 -3.41 0.86 2.75 -3.70 0.45 3.59 -4.15 -0.10 4.58 -4.41 -0.11 5.05 -4.00 -0.74 5.37 -2.85 0.54 2.09 -3.19 0.46 2.89 -4.00 0.26 3.13 -4.59 -0.18 3.70 -4.59 -0.43 5.36 -2.89 0.53 2.05 -3.02 0.23 2.93 -3.67 0.08 3.27 -4.43 -0.29 3.68 -4.85 -0.81 5.15 -2.81 0.23 2.24 -3.39 0.11 2.63 -4.01 -0.21 3.05 -4.64 -0.34 3.52 -4.88 -0.93 4.84 -3.46 0.10 1.17 -4.33 0.06 1.33 -4.54 -0.14 2.33 -4.88 -0.60 3.30 -5.11 -1.34 4.79 -3.15 0.31 0.78 -4.16 0.01 1.04 -5.24 -0.34 1.55 -5.44 -0.54 2.46 -3.76 -0.27 0.17 -4.37 -0.45 0.73 -5.30 -0.50 0.84 -6.16 -1.04 1.93 5.44 0.38 4.24 -3.51 0.30 -0.53 -4.17 0.22 -0.36 -4.94 -0.23 -0.09 -5.79 -0.53 0.26 5.55 -0.12 3.44 4.54 0.24 3.17 3.80 0.19 3.49 3.75 -0.25 4.40 -3.88 0.19 -0.69 -4.63 -0.02 -0.68 -5.40 -0.31 -0.63 5.56 0.03 1.85 4.61 0.12 1.99 3.72 0.26 1.89 2.81 0.16 2.38 2.37 0.69 2.70 -3.04 0.28 -1.64 -3.87 0.35 -1.62 -4.58 0.20 -1.84 -5.65 -0.42 -1.10 5.78 -0.21 0.76 4.71 0.02 0.27 3.77 0.07 0.28 3.01 0.22 0.85 -3.59 0.56 -2.53 4.70 -0.57 0.03 3.82 -0.40 0.03 3.04 -0.25 0.65 -11.70 0.64 2.94 -8.91 0.60 8.44 2.85 -2.30 0.38 -10.88 0.62 3.39 -8.63 0.56 9.41 -1.70 1.46 -4.07 0.43 2.41 -7.01 0.71 1.37 -3.31 -1.12 1.31 -4.01 3.44 2.19 -3.35 3.36 0.99 -3.15 2.34 0.71 -2.96 0.72 0.59 -3.16 -6.84 0.12 -3.63 -0.37 6.71 4.05 -0.08 2.76 -2.85 -0.13 7.89 6.07 0.08 7.84 5.58 3.43 0.45 -3.52 2.42 0.13 -3.27 1.44 -0.06 -3.12 1.01 -0.42 -3.61 -5.46 2.59 5.65 -6.64 -0.60 -3.47 0.97 6.69 5.11 0.38 6.87 5.75 -0.15 7.34 7.26 -0.51 7.37 6.43 -0.33 6.83 4.75 2.27 2.47 -2.51 1.62 -0.58 -3.45 3.90 1.09 -2.07 -5.36 2.37 4.20 -5.25 0.83 9.17 -0.10 4.32 3.97 1.21 6.33 6.53 -0.95 6.56 6.23 -1.23 6.33 5.52 1.87 2.75 -0.61 2.20 1.91 -1.53 -3.89 1.51 7.71 -2.67 6.12 6.85 -3.04 5.92 6.23 8.52 -1.15 0.64 7.51 2.42 0.85 0.51 2.90 2.43 2.00 3.77 3.63 0.34 2.99 1.79 -0.70 4.11 2.86 0.12 2.53 2.33 2.82 2.38 4.65 -1.07 2.07 6.27 -1.53 1.78 6.40 -7.13 0.81 2.91 0.81 1.83 6.28 0.19 1.87 6.32 -0.38 1.81 6.26 -0.73 1.77 6.22 -1.00 1.68 6.25 -1.51 1.61 6.34 -1.94 1.64 6.49 3.25 1.85 5.76 0.72 1.10 6.22 0.13 1.12 6.28 -0.30 1.12 6.15 -0.59 1.15 6.04 -1.03 1.20 5.96 -1.41 1.26 6.02 -1.37 1.32 6.19 0.77 0.52 6.13 0.22 0.61 6.08 -0.06 0.68 5.87 -0.31 0.69 5.66 -0.89 0.62 5.62 -1.39 0.64 5.69 -1.27 0.66 5.93 -1.79 0.61 6.39 0.94 -0.11 6.24 0.18 -0.11 6.16 -0.23 -0.04 6.05 -0.56 0.29 5.82 -0.93 0.41 5.64 -1.08 0.29 5.55 -1.28 0.21 5.62 -1.68 0.15 6.27 -2.29 0.08 6.48 1.05 0.09 5.46 1.73 0.02 6.07 1.03 0.03 5.97 0.42 0.20 5.73 -0.06 0.04 5.63 -0.41 -0.03 5.59 -0.89 -0.08 5.57 -1.50 0.18 5.49 -1.81 0.23 5.63 -1.78 -0.03 6.10 -2.30 -0.26 6.56 0.13 -0.06 5.55 2.84 -1.33 5.56 1.74 0.09 5.63 1.38 -0.11 5.72 0.83 -0.11 5.74 0.37 0.26 5.57 -0.29 0.10 5.58 -0.68 -0.08 5.59 -0.92 -0.22 5.59 -1.37 -0.11 5.82 -1.77 -0.28 5.88 -1.88 -0.57 6.10 -0.70 -0.86 5.28 -5.39 -3.26 -0.17 2.13 0.07 5.62 1.53 0.32 5.41 0.78 0.24 5.33 0.52 0.08 5.24 0.22 0.11 5.31 -0.47 -0.01 5.28 -0.87 -0.25 5.49 -0.99 -0.54 5.66 -1.53 -0.64 5.84 -1.97 -0.86 6.01 -1.46 -1.55 5.01 -6.41 -4.60 -0.81 1.92 -0.35 5.46 1.30 -0.20 5.30 0.67 -0.28 5.29 0.22 -0.39 5.19 0.02 -0.40 5.12 -0.64 -0.51 5.14 -1.16 -0.62 5.33 -1.25 -1.02 5.69 -1.72 -1.25 5.90 -2.18 -1.20 4.85 -6.28 -5.61 -1.55 1.10 -0.76 5.25 0.69 -0.73 5.36 0.26 -0.79 5.29 -0.08 -0.87 5.06 -0.78 -0.92 5.05 -1.47 -1.02 5.16 -1.72 -1.50 5.50 -1.95 -1.77 5.76 -2.43 -1.59 4.91 -5.66 -5.78 -2.29 0.78 -1.20 5.44 0.17 -1.07 5.34 -0.20 -1.10 4.97 -0.87 -1.15 4.90 -1.62 -1.55 5.11 -2.29 -1.83 5.26 -2.49 -2.21 5.43 -2.93 -2.06 5.28 5.02 -1.65 3.21 -4.93 -6.08 -3.22 0.26 -1.65 5.07 -0.28 -1.44 4.66 -1.02 -1.50 4.65 -1.71 -1.85 4.83 -2.43 -2.27 5.01 -0.79 4.46 -3.73 -2.44 1.71 0.91 -0.35 -2.05 4.48 -1.11 -2.19 4.40 -1.87 -2.38 4.59 4.81 -0.60 1.27 -2.13 -1.48 2.29 2.80 -0.94 1.14 -2.27 -1.96 1.86 4.57 -0.03 0.08 4.30 -0.93 -0.14 3.23 -0.82 -0.46 3.50 2.88 -0.60 3.25 4.32 1.49 4.28 3.43 1.29 3.24 3.28 1.52 -3.68 -3.87 3.57 -4.63 -3.83 3.54 3.75 -1.57 -0.83 -3.58 -4.64 3.72 3.55 -2.19 -0.90 4.29 -2.86 -0.93 3.27 -2.79 -0.94 3.60 -3.84 -0.81 7.82 -6.16 3.62 -3.46 -2.13 5.19 -2.72 -2.66 4.45 -1.86 -0.14 6.47 -1.24 -0.01 6.28 -1.48 -0.07 6.63 -2.27 -0.09 6.71 -1.53 0.61 6.25 -1.43 -0.03 6.52 -2.18 -0.30 6.64 -1.26 0.37 5.93 -1.80 0.21 6.15 -1.81 -0.20 6.28 -2.13 -0.46 6.53 -4.38 1.22 1.88 -2.31 0.90 3.18 -1.91 0.61 4.28 -1.79 0.49 5.37 -1.95 -0.03 5.79 -2.26 -0.38 5.82 -2.65 -0.66 6.13 -2.68 -0.76 6.57 -2.08 1.41 1.75 -1.80 1.52 2.32 -2.06 1.38 3.11 -2.30 0.93 4.18 -2.30 0.65 4.85 -2.37 0.30 5.44 -2.55 -0.17 5.50 -2.80 -0.73 5.63 -2.93 -0.95 6.30 -1.76 1.15 3.08 -1.98 1.06 3.83 -2.42 0.47 4.51 -2.56 0.14 5.18 -2.83 -0.02 5.34 -2.72 -0.33 5.66 -3.10 -0.40 6.11 -1.85 0.65 3.33 -2.29 0.66 3.74 -2.73 0.41 4.00 -2.81 -0.04 4.59 -2.85 -0.24 5.11 -2.78 -0.50 5.58 -3.21 -0.45 6.20 4.36 3.08 3.43 4.91 3.34 2.83 4.20 3.62 2.96 3.39 3.85 3.26 -2.21 0.14 3.47 -2.90 0.22 3.68 -3.