# vtk DataFile Version 2.0
VTK from Matlab
ASCII
DATASET STRUCTURED_GRID
DIMENSIONS 8407 1 1
POINTS 8407 float
28.00 101.00 13.00 35.00 87.00 14.00 32.00 94.00 14.00 33.00 94.00 14.00 34.00 94.00 14.00 35.00 94.00 14.00 36.00 94.00 14.00 37.00 94.00 14.00 27.00 95.00 14.00 28.00 95.00 14.00 29.00 95.00 14.00 30.00 95.00 14.00 31.00 95.00 14.00 32.00 95.00 14.00 33.00 95.00 14.00 34.00 95.00 14.00 35.00 95.00 14.00 36.00 95.00 14.00 37.00 95.00 14.00 38.00 95.00 14.00 39.00 95.00 14.00 26.00 96.00 14.00 27.00 96.00 14.00 28.00 96.00 14.00 29.00 96.00 14.00 30.00 96.00 14.00 31.00 96.00 14.00 32.00 96.00 14.00 33.00 96.00 14.00 34.00 96.00 14.00 35.00 96.00 14.00 36.00 96.00 14.00 37.00 96.00 14.00 38.00 96.00 14.00 39.00 96.00 14.00 40.00 96.00 14.00 41.00 96.00 14.00 42.00 96.00 14.00 27.00 97.00 14.00 28.00 97.00 14.00 29.00 97.00 14.00 30.00 97.00 14.00 31.00 97.00 14.00 32.00 97.00 14.00 33.00 97.00 14.00 34.00 97.00 14.00 35.00 97.00 14.00 36.00 97.00 14.00 37.00 97.00 14.00 38.00 97.00 14.00 39.00 97.00 14.00 40.00 97.00 14.00 41.00 97.00 14.00 42.00 97.00 14.00 29.00 98.00 14.00 30.00 98.00 14.00 31.00 98.00 14.00 32.00 98.00 14.00 33.00 98.00 14.00 34.00 98.00 14.00 35.00 98.00 14.00 36.00 98.00 14.00 37.00 98.00 14.00 38.00 98.00 14.00 39.00 98.00 14.00 40.00 98.00 14.00 41.00 98.00 14.00 42.00 98.00 14.00 30.00 99.00 14.00 31.00 99.00 14.00 32.00 99.00 14.00 33.00 99.00 14.00 34.00 99.00 14.00 35.00 99.00 14.00 36.00 99.00 14.00 37.00 99.00 14.00 38.00 99.00 14.00 30.00 100.00 14.00 31.00 100.00 14.00 32.00 100.00 14.00 33.00 100.00 14.00 34.00 100.00 14.00 35.00 100.00 14.00 36.00 100.00 14.00 37.00 100.00 14.00 38.00 100.00 14.00 39.00 100.00 14.00 27.00 101.00 14.00 28.00 101.00 14.00 29.00 101.00 14.00 30.00 101.00 14.00 31.00 101.00 14.00 32.00 101.00 14.00 33.00 101.00 14.00 34.00 101.00 14.00 35.00 101.00 14.00 19.00 87.00 15.00 19.00 88.00 15.00 35.00 88.00 15.00 35.00 94.00 15.00 31.00 95.00 15.00 32.00 95.00 15.00 33.00 95.00 15.00 34.00 95.00 15.00 35.00 95.00 15.00 36.00 95.00 15.00 37.00 95.00 15.00 38.00 95.00 15.00 27.00 96.00 15.00 28.00 96.00 15.00 29.00 96.00 15.00 30.00 96.00 15.00 31.00 96.00 15.00 32.00 96.00 15.00 33.00 96.00 15.00 34.00 96.00 15.00 35.00 96.00 15.00 36.00 96.00 15.00 37.00 96.00 15.00 38.00 96.00 15.00 39.00 96.00 15.00 40.00 96.00 15.00 41.00 96.00 15.00 42.00 96.00 15.00 43.00 96.00 15.00 28.00 97.00 15.00 29.00 97.00 15.00 30.00 97.00 15.00 31.00 97.00 15.00 32.00 97.00 15.00 33.00 97.00 15.00 34.00 97.00 15.00 35.00 97.00 15.00 36.00 97.00 15.00 37.00 97.00 15.00 38.00 97.00 15.00 39.00 97.00 15.00 40.00 97.00 15.00 41.00 97.00 15.00 42.00 97.00 15.00 43.00 97.00 15.00 29.00 98.00 15.00 30.00 98.00 15.00 31.00 98.00 15.00 32.00 98.00 15.00 33.00 98.00 15.00 34.00 98.00 15.00 35.00 98.00 15.00 36.00 98.00 15.00 37.00 98.00 15.00 38.00 98.00 15.00 39.00 98.00 15.00 43.00 98.00 15.00 31.00 99.00 15.00 32.00 99.00 15.00 33.00 99.00 15.00 34.00 99.00 15.00 35.00 99.00 15.00 36.00 99.00 15.00 37.00 99.00 15.00 38.00 99.00 15.00 30.00 100.00 15.00 31.00 100.00 15.00 32.00 100.00 15.00 33.00 100.00 15.00 34.00 100.00 15.00 35.00 100.00 15.00 36.00 100.00 15.00 37.00 100.00 15.00 38.00 100.00 15.00 26.00 101.00 15.00 27.00 101.00 15.00 29.00 101.00 15.00 30.00 101.00 15.00 31.00 101.00 15.00 34.00 88.00 16.00 35.00 88.00 16.00 23.00 95.00 16.00 34.00 95.00 16.00 35.00 95.00 16.00 36.00 95.00 16.00 32.00 96.00 16.00 33.00 96.00 16.00 34.00 96.00 16.00 35.00 96.00 16.00 36.00 96.00 16.00 37.00 96.00 16.00 38.00 96.00 16.00 39.00 96.00 16.00 40.00 96.00 16.00 41.00 96.00 16.00 42.00 96.00 16.00 43.00 96.00 16.00 44.00 96.00 16.00 24.00 97.00 16.00 28.00 97.00 16.00 29.00 97.00 16.00 30.00 97.00 16.00 31.00 97.00 16.00 32.00 97.00 16.00 33.00 97.00 16.00 34.00 97.00 16.00 35.00 97.00 16.00 36.00 97.00 16.00 37.00 97.00 16.00 38.00 97.00 16.00 39.00 97.00 16.00 40.00 97.00 16.00 41.00 97.00 16.00 42.00 97.00 16.00 43.00 97.00 16.00 44.00 97.00 16.00 29.00 98.00 16.00 30.00 98.00 16.00 31.00 98.00 16.00 32.00 98.00 16.00 33.00 98.00 16.00 34.00 98.00 16.00 35.00 98.00 16.00 36.00 98.00 16.00 37.00 98.00 16.00 38.00 98.00 16.00 39.00 98.00 16.00 44.00 98.00 16.00 30.00 99.00 16.00 31.00 99.00 16.00 32.00 99.00 16.00 33.00 99.00 16.00 34.00 99.00 16.00 35.00 99.00 16.00 36.00 99.00 16.00 37.00 99.00 16.00 38.00 99.00 16.00 39.00 99.00 16.00 30.00 100.00 16.00 31.00 100.00 16.00 32.00 100.00 16.00 33.00 100.00 16.00 34.00 100.00 16.00 35.00 100.00 16.00 36.00 100.00 16.00 37.00 100.00 16.00 38.00 100.00 16.00 39.00 100.00 16.00 26.00 101.00 16.00 29.00 101.00 16.00 24.00 44.00 17.00 24.00 45.00 17.00 24.00 46.00 17.00 23.00 47.00 17.00 24.00 47.00 17.00 23.00 48.00 17.00 45.00 48.00 17.00 23.00 49.00 17.00 23.00 50.00 17.00 34.00 83.00 17.00 33.00 84.00 17.00 34.00 84.00 17.00 33.00 85.00 17.00 34.00 85.00 17.00 35.00 85.00 17.00 33.00 86.00 17.00 34.00 86.00 17.00 35.00 86.00 17.00 33.00 87.00 17.00 34.00 87.00 17.00 35.00 87.00 17.00 32.00 88.00 17.00 33.00 88.00 17.00 34.00 88.00 17.00 35.00 88.00 17.00 36.00 88.00 17.00 32.00 89.00 17.00 29.00 92.00 17.00 28.00 93.00 17.00 29.00 93.00 17.00 23.00 95.00 17.00 23.00 96.00 17.00 41.00 96.00 17.00 42.00 96.00 17.00 43.00 96.00 17.00 44.00 96.00 17.00 45.00 96.00 17.00 35.00 97.00 17.00 36.00 97.00 17.00 37.00 97.00 17.00 38.00 97.00 17.00 39.00 97.00 17.00 40.00 97.00 17.00 41.00 97.00 17.00 44.00 97.00 17.00 24.00 98.00 17.00 29.00 98.00 17.00 34.00 98.00 17.00 35.00 98.00 17.00 36.00 98.00 17.00 37.00 98.00 17.00 38.00 98.00 17.00 39.00 98.00 17.00 40.00 98.00 17.00 44.00 98.00 17.00 29.00 99.00 17.00 30.00 99.00 17.00 31.00 99.00 17.00 35.00 99.00 17.00 36.00 99.00 17.00 37.00 99.00 17.00 38.00 99.00 17.00 39.00 99.00 17.00 44.00 99.00 17.00 25.00 100.00 17.00 29.00 100.00 17.00 30.00 100.00 17.00 31.00 100.00 17.00 32.00 100.00 17.00 33.00 100.00 17.00 34.00 100.00 17.00 35.00 100.00 17.00 36.00 100.00 17.00 37.00 100.00 17.00 38.00 100.00 17.00 39.00 100.00 17.00 44.00 100.00 17.00 25.00 101.00 17.00 26.00 101.00 17.00 27.00 101.00 17.00 28.00 101.00 17.00 42.00 39.00 18.00 42.00 40.00 18.00 42.00 41.00 18.00 43.00 41.00 18.00 42.00 42.00 18.00 43.00 42.00 18.00 44.00 42.00 18.00 42.00 43.00 18.00 43.00 43.00 18.00 44.00 43.00 18.00 45.00 43.00 18.00 43.00 44.00 18.00 44.00 44.00 18.00 45.00 44.00 18.00 24.00 45.00 18.00 43.00 45.00 18.00 44.00 45.00 18.00 45.00 45.00 18.00 24.00 46.00 18.00 44.00 46.00 18.00 45.00 46.00 18.00 24.00 47.00 18.00 44.00 47.00 18.00 45.00 47.00 18.00 23.00 48.00 18.00 45.00 48.00 18.00 23.00 49.00 18.00 32.00 80.00 18.00 33.00 80.00 18.00 34.00 80.00 18.00 35.00 80.00 18.00 32.00 81.00 18.00 33.00 81.00 18.00 34.00 81.00 18.00 35.00 81.00 18.00 36.00 81.00 18.00 31.00 82.00 18.00 32.00 82.00 18.00 33.00 82.00 18.00 34.00 82.00 18.00 35.00 82.00 18.00 36.00 82.00 18.00 31.00 83.00 18.00 32.00 83.00 18.00 33.00 83.00 18.00 34.00 83.00 18.00 35.00 83.00 18.00 36.00 83.00 18.00 31.00 84.00 18.00 32.00 84.00 18.00 33.00 84.00 18.00 34.00 84.00 18.00 35.00 84.00 18.00 36.00 84.00 18.00 31.00 85.00 18.00 32.00 85.00 18.00 33.00 85.00 18.00 34.00 85.00 18.00 35.00 85.00 18.00 36.00 85.00 18.00 31.00 86.00 18.00 32.00 86.00 18.00 33.00 86.00 18.00 34.00 86.00 18.00 35.00 86.00 18.00 36.00 86.00 18.00 31.00 87.00 18.00 32.00 87.00 18.00 33.00 87.00 18.00 34.00 87.00 18.00 35.00 87.00 18.00 36.00 87.00 18.00 37.00 87.00 18.00 30.00 88.00 18.00 31.00 88.00 18.00 32.00 88.00 18.00 37.00 88.00 18.00 28.00 92.00 18.00 27.00 93.00 18.00 22.00 95.00 18.00 43.00 95.00 18.00 44.00 95.00 18.00 46.00 95.00 18.00 23.00 96.00 18.00 42.00 96.00 18.00 43.00 96.00 18.00 44.00 96.00 18.00 45.00 96.00 18.00 23.00 97.00 18.00 41.00 97.00 18.00 44.00 97.00 18.00 24.00 98.00 18.00 39.00 98.00 18.00 40.00 98.00 18.00 44.00 98.00 18.00 24.00 99.00 18.00 29.00 99.00 18.00 30.00 99.00 18.00 34.00 99.00 18.00 35.00 99.00 18.00 36.00 99.00 18.00 37.00 99.00 18.00 38.00 99.00 18.00 39.00 99.00 18.00 44.00 99.00 18.00 25.00 100.00 18.00 29.00 100.00 18.00 30.00 100.00 18.00 31.00 100.00 18.00 32.00 100.00 18.00 33.00 100.00 18.00 34.00 100.00 18.00 35.00 100.00 18.00 36.00 100.00 18.00 37.00 100.00 18.00 38.00 100.00 18.00 39.00 100.00 18.00 44.00 100.00 18.00 25.00 101.00 18.00 26.00 101.00 18.00 27.00 101.00 18.00 28.00 101.00 18.00 42.00 38.00 19.00 42.00 39.00 19.00 42.00 40.00 19.00 42.00 41.00 19.00 42.00 42.00 19.00 43.00 42.00 19.00 42.00 43.00 19.00 43.00 43.00 19.00 43.00 44.00 19.00 43.00 45.00 19.00 44.00 45.00 19.00 44.00 46.00 19.00 44.00 47.00 19.00 31.00 78.00 19.00 32.00 78.00 19.00 33.00 78.00 19.00 34.00 78.00 19.00 35.00 78.00 19.00 36.00 78.00 19.00 31.00 79.00 19.00 32.00 79.00 19.00 33.00 79.00 19.00 34.00 79.00 19.00 35.00 79.00 19.00 36.00 79.00 19.00 37.00 79.00 19.00 30.00 80.00 19.00 31.00 80.00 19.00 32.00 80.00 19.00 33.00 80.00 19.00 34.00 80.00 19.00 35.00 80.00 19.00 36.00 80.00 19.00 37.00 80.00 19.00 30.00 81.00 19.00 31.00 81.00 19.00 32.00 81.00 19.00 33.00 81.00 19.00 34.00 81.00 19.00 35.00 81.00 19.00 36.00 81.00 19.00 37.00 81.00 19.00 38.00 81.00 19.00 29.00 82.00 19.00 30.00 82.00 19.00 31.00 82.00 19.00 32.00 82.00 19.00 33.00 82.00 19.00 34.00 82.00 19.00 35.00 82.00 19.00 36.00 82.00 19.00 37.00 82.00 19.00 38.00 82.00 19.00 29.00 83.00 19.00 30.00 83.00 19.00 31.00 83.00 19.00 32.00 83.00 19.00 33.00 83.00 19.00 34.00 83.00 19.00 35.00 83.00 19.00 36.00 83.00 19.00 37.00 83.00 19.00 38.00 83.00 19.00 29.00 84.00 19.00 30.00 84.00 19.00 31.00 84.00 19.00 32.00 84.00 19.00 33.00 84.00 19.00 34.00 84.00 19.00 35.00 84.00 19.00 36.00 84.00 19.00 37.00 84.00 19.00 38.00 84.00 19.00 29.00 85.00 19.00 30.00 85.00 19.00 31.00 85.00 19.00 32.00 85.00 19.00 33.00 85.00 19.00 34.00 85.00 19.00 35.00 85.00 19.00 36.00 85.00 19.00 37.00 85.00 19.00 38.00 85.00 19.00 29.00 86.00 19.00 30.00 86.00 19.00 31.00 86.00 19.00 37.00 86.00 19.00 38.00 86.00 19.00 29.00 87.00 19.00 26.00 93.00 19.00 21.00 94.00 19.00 25.00 94.00 19.00 22.00 95.00 19.00 22.00 96.00 19.00 23.00 96.00 19.00 42.00 96.00 19.00
[...]
POINT_DATA 8407
VECTORS vector_field float
0.89 5.00 -3.46 0.09 -1.92 3.73 1.60 2.71 -1.50 1.08 3.30 -1.50 0.82 3.63 -1.65 0.97 3.68 -1.75 1.20 3.45 -1.71 1.28 3.14 -1.49 2.64 0.40 -2.37 2.54 0.87 -2.41 2.19 1.56 -2.28 1.62 2.19 -2.18 0.87 2.74 -2.04 0.43 3.11 -2.20 0.23 3.46 -2.43 0.39 3.72 -2.72 0.74 3.76 -2.93 1.11 3.57 -2.96 1.42 3.36 -2.80 1.37 3.18 -2.54 0.90 2.97 -2.19 2.31 1.56 -2.38 2.42 1.34 -2.68 2.01 1.72 -2.58 1.32 2.33 -2.42 0.65 2.75 -2.44 0.24 2.93 -2.62 0.02 3.00 -2.91 0.05 3.17 -3.28 0.31 3.42 -3.58 0.70 3.66 -3.70 1.30 3.58 -3.65 2.00 3.46 -3.46 2.21 3.28 -3.23 1.88 3.21 -2.97 1.39 3.28 -2.66 0.95 3.43 -2.36 0.81 3.39 -1.88 1.78 2.76 -2.43 1.23 3.60 -2.53 0.61 4.11 -2.68 0.17 4.08 -2.83 -0.07 3.65 -3.07 -0.05 3.23 -3.48 0.17 3.09 -3.90 0.37 3.31 -4.07 0.65 3.67 -4.03 1.44 3.61 -3.99 2.60 3.59 -3.88 2.95 3.69 -3.66 2.70 3.95 -3.37 2.20 4.50 -3.13 1.65 5.12 -2.89 1.21 5.31 -2.58 0.38 6.50 -3.52 -0.09 5.83 -3.54 -0.16 4.84 -3.52 0.03 3.91 -3.69 0.25 3.59 -3.94 0.37 3.76 -3.94 0.59 3.93 -3.89 1.36 3.82 -3.93 2.73 3.96 -3.95 3.15 4.73 -3.77 2.79 5.74 -3.58 2.25 6.57 -3.45 1.65 7.10 -3.28 1.20 7.17 -3.01 0.11 6.36 -4.06 -0.04 5.62 -3.68 0.15 4.84 -3.44 0.30 4.55 -3.41 0.35 4.58 -3.40 0.54 4.37 -3.52 1.22 4.03 -3.66 2.45 4.30 -3.75 2.92 5.31 -3.72 0.27 5.89 -3.98 0.37 5.51 -3.26 0.45 5.24 -2.63 0.38 5.19 -2.44 0.39 5.11 -2.52 0.56 4.87 -2.84 1.12 4.57 -3.08 1.97 4.63 -3.16 2.42 5.20 -3.29 2.19 5.60 -3.32 1.74 5.00 -3.14 1.10 5.00 -3.62 0.66 5.00 -3.68 0.43 5.00 -3.26 0.59 5.00 -2.17 0.55 4.90 -1.54 0.47 4.86 -1.36 0.48 4.85 -1.41 0.62 4.81 -1.68 -4.12 -2.49 -0.33 -3.69 -2.12 -0.99 -0.07 -1.81 3.52 0.96 3.40 -1.43 0.94 2.87 -1.29 0.37 3.36 -1.80 0.15 3.69 -2.25 0.34 3.88 -2.63 0.67 3.87 -2.82 0.99 3.66 -2.84 1.14 3.41 -2.73 0.95 3.15 -2.37 2.41 0.87 -3.04 2.07 1.29 -2.78 1.43 2.09 -2.24 0.73 2.69 -2.35 0.16 3.05 -2.65 -0.20 3.26 -3.04 -0.18 3.48 -3.38 0.13 3.67 -3.74 0.54 3.75 -3.92 1.03 3.61 -3.91 1.48 3.40 -3.71 1.55 3.25 -3.44 1.22 3.17 -3.19 0.74 3.26 -2.93 0.31 3.36 -2.72 0.21 3.43 -2.59 0.61 3.21 -2.19 1.41 2.95 -2.85 0.81 3.44 -2.89 0.27 3.60 -3.04 -0.15 3.54 -3.27 -0.29 3.39 -3.59 -0.13 3.34 -4.00 0.11 3.45 -4.31 0.47 3.61 -4.39 1.19 3.51 -4.38 2.08 3.33 -4.23 2.42 3.36 -4.02 2.24 3.74 -3.83 1.82 4.56 -3.69 1.28 5.62 -3.65 0.80 6.33 -3.53 0.79 5.31 -3.00 0.40 6.17 -3.79 -0.09 5.48 -3.72 -0.30 4.62 -3.63 -0.28 3.89 -3.73 -0.10 3.60 -4.03 0.08 3.65 -4.21 0.38 3.76 -4.25 1.13 3.61 -4.33 2.34 3.53 -4.35 2.85 4.18 -4.23 2.56 5.55 -4.11 0.86 6.99 -3.35 -0.11 5.44 -3.58 -0.15 4.56 -3.26 -0.04 4.24 -3.27 0.10 4.29 -3.40 0.37 4.24 -3.59 1.00 3.92 -3.81 2.08 4.00 -3.94 2.66 5.13 -4.03 0.46 5.94 -3.74 0.40 5.49 -2.73 0.24 5.08 -2.12 0.19 4.94 -1.92 0.26 4.85 -2.02 0.46 4.73 -2.32 0.97 4.64 -2.64 1.70 4.73 -2.87 2.16 5.27 -3.23 2.30 5.00 -2.87 1.81 5.00 -3.45 0.73 5.00 -3.70 0.42 5.00 -2.98 0.48 5.00 -1.91 0.15 -1.66 3.68 -0.17 -1.65 3.65 1.59 1.55 -2.07 0.51 3.59 -1.70 0.70 3.49 -1.85 0.83 3.30 -1.86 -0.07 3.29 -2.15 -0.24 3.47 -2.70 0.03 3.62 -3.22 0.45 3.61 -3.49 0.84 3.47 -3.51 1.01 3.27 -3.32 0.82 3.14 -2.93 0.43 3.07 -2.58 -0.01 3.10 -2.47 -0.29 3.23 -2.62 -0.25 3.44 -2.98 0.13 3.43 -2.92 1.05 3.15 -2.46 0.15 3.59 -2.46 1.60 2.56 -2.71 1.22 2.63 -2.12 0.69 2.77 -2.05 0.08 2.95 -2.48 -0.39 3.07 -2.97 -0.44 3.22 -3.40 -0.15 3.37 -3.92 0.32 3.42 -4.19 0.88 3.32 -4.22 1.34 3.16 -3.99 1.45 3.16 -3.68 1.31 3.42 -3.57 1.16 4.10 -3.76 0.91 5.43 -4.10 0.52 6.69 -4.27 0.39 6.35 -4.00 1.21 4.46 -2.65 0.56 4.88 -3.66 0.21 3.75 -3.19 -0.15 3.26 -2.94 -0.41 3.10 -2.96 -0.43 3.18 -3.20 -0.20 3.34 -3.62 0.21 3.38 -3.95 0.82 3.25 -4.13 1.53 3.12 -4.10 1.96 3.39 -4.04 2.06 4.64 -4.22 1.08 5.37 -2.81 0.28 5.65 -3.55 -0.04 4.03 -2.75 -0.17 3.33 -2.27 -0.20 3.28 -2.18 -0.07 3.43 -2.42 0.25 3.45 -2.73 0.76 3.35 -3.10 1.46 3.39 -3.41 2.00 4.33 -3.66 2.10 6.00 -4.26 0.50 5.94 -3.27 0.45 5.25 -2.28 0.33 4.64 -1.62 0.26 4.34 -1.30 0.30 4.22 -1.28 0.45 4.26 -1.36 0.83 4.48 -1.55 1.36 4.88 -1.98 1.72 5.30 -2.67 1.79 5.72 -3.57 2.31 5.00 -3.29 0.68 5.00 -3.72 -2.88 -0.98 1.65 -3.10 -1.36 1.42 -3.22 -1.85 1.25 -2.86 -1.55 0.92 -3.26 -2.53 1.21 -2.98 -1.95 0.66 2.94 -1.87 2.34 -3.06 -2.43 0.41 -3.09 -3.06 0.28 0.46 -2.63 4.83 0.45 -2.60 4.67 0.45 -2.45 4.70 0.50 -2.46 4.53 0.41 -2.23 4.54 0.26 -2.42 4.52 0.53 -2.21 4.32 0.34 -1.93 4.29 0.14 -2.08 4.23 0.52 -1.83 3.99 0.25 -1.56 3.94 -0.01 -1.65 3.87 0.70 -1.79 3.61 0.47 -1.38 3.51 0.14 -1.14 3.46 -0.17 -1.21 3.38 -0.33 -1.72 3.32 0.70 -1.27 3.07 1.53 -1.42 2.84 1.85 -1.57 2.62 1.69 -1.24 2.71 2.04 -1.05 -2.41 -0.17 2.70 -2.77 -0.61 2.81 -2.13 -0.55 3.31 -3.04 -0.17 3.54 -3.39 0.77 3.17 -3.11 1.57 3.09 -2.64 0.24 2.89 -2.28 0.55 2.81 -2.36 0.63 2.73 -2.24 0.47 2.74 -2.01 0.27 2.92 -2.17 0.21 3.53 -2.93 0.46 5.01 -4.06 1.13 4.94 -3.35 0.84 3.80 -2.52 1.25 3.10 -2.32 -0.08 2.55 -1.75 0.18 2.58 -2.08 0.50 2.54 -2.27 0.70 2.58 -2.38 0.76 2.81 -2.47 0.93 3.59 -3.16 1.23 5.82 -4.44 1.14 5.79 -3.25 0.96 6.54 -3.94 0.74 3.88 -2.45 0.62 2.72 -1.56 0.30 2.63 -1.51 0.52 2.64 -1.67 0.78 2.81 -1.97 1.06 3.45 -2.52 1.48 5.43 -3.76 1.40 5.99 -2.36 2.72 6.00 -3.35 0.75 6.00 -4.04 0.63 5.91 -3.05 0.71 5.08 -1.96 0.59 4.69 -1.37 0.43 4.71 -1.12 0.31 4.92 -1.02 0.29 5.25 -0.94 0.49 5.47 -0.92 0.79 5.60 -1.14 1.13 5.76 -1.77 1.37 5.89 -3.07 1.42 5.69 -1.84 2.50 5.00 -2.74 2.28 5.00 -3.66 1.77 5.00 -4.08 1.17 5.00 -4.17 2.64 0.92 1.97 2.83 0.48 2.00 2.96 0.03 2.07 2.52 0.33 2.45 3.12 -0.45 2.13 2.73 -0.11 2.49 2.31 0.24 2.63 3.29 -0.89 2.17 3.03 -0.52 2.43 2.52 -0.24 2.51 1.89 -0.03 2.57 3.30 -0.90 2.32 2.73 -0.69 2.39 2.07 -0.48 2.47 -2.81 -1.50 1.07 3.51 -1.24 2.21 2.93 -1.06 2.27 2.25 -0.90 2.33 -2.98 -2.02 0.86 3.07 -1.48 2.12 2.43 -1.23 2.16 -3.03 -2.69 0.79 3.17 -2.00 1.98 2.62 -1.54 2.00 -2.87 -2.11 0.35 2.78 -1.90 1.77 -2.96 -2.60 0.11 0.60 -1.58 4.47 0.40 -1.56 4.49 0.22 -1.61 4.49 0.03 -1.70 4.46 0.47 -1.84 4.47 0.36 -1.80 4.48 0.28 -1.86 4.49 0.16 -1.98 4.49 -0.08 -2.21 4.43 0.47 -2.42 4.37 0.33 -2.06 4.41 0.32 -1.95 4.40 0.32 -2.00 4.41 0.26 -2.15 4.44 0.05 -2.42 4.41 0.37 -2.64 4.31 0.29 -2.17 4.31 0.32 -1.94 4.27 0.34 -1.93 4.27 0.29 -2.11 4.32 0.11 -2.46 4.33 0.36 -2.67 4.24 0.33 -2.15 4.20 0.34 -1.85 4.14 0.31 -1.78 4.12 0.24 -1.93 4.14 0.10 -2.32 4.16 0.43 -2.53 4.11 0.42 -2.04 4.04 0.38 -1.71 3.97 0.27 -1.61 3.93 0.14 -1.73 3.91 0.01 -2.12 3.91 0.56 -2.23 3.90 0.52 -1.77 3.80 0.41 -1.46 3.71 0.22 -1.34 3.65 0.02 -1.44 3.61 -0.14 -1.85 3.59 0.75 -1.80 3.57 0.63 -1.42 3.44 0.43 -1.19 3.38 0.17 -1.08 3.34 -0.09 -1.15 3.29 -0.29 -1.53 3.23 -0.40 -2.19 3.21 1.08 -1.67 3.29 0.94 -1.33 3.13 0.72 -1.06 3.04 -0.55 -1.79 2.84 1.65 -1.33 2.49 2.06 -1.78 2.21 0.33 0.54 -3.09 -0.05 0.97 -3.74 -0.06 0.72 -3.69 0.40 0.11 -3.08 -0.41 2.45 -3.35 -0.60 3.05 -2.94 -0.19 3.51 -3.72 0.85 3.04 -3.67 1.69 2.83 -3.28 -0.55 3.29 -2.14 0.01 4.38 -3.66 1.47 4.98 -3.66 0.48 3.57 -2.96 0.24 2.81 -2.14 0.72 4.87 -3.93 1.66 5.87 -3.20 1.34 4.24 -2.19 1.17 5.63 -3.68 1.16 2.71 -1.87 0.37 3.04 -1.55 0.37 3.47 -1.60 0.39 3.66 -1.64 0.42 3.68 -1.78 0.55 4.08 -2.19 0.88 5.45 -3.24 1.97 5.95 -1.92 2.69 6.00 -3.70 0.81 6.00 -4.11 0.88 5.77 -2.92 0.92 5.11 -1.95 0.70 5.30 -1.60 0.43 5.58 -1.48 0.24 5.74 -1.45 0.17 5.79 -1.45 0.28 5.90 -1.41 0.43 5.98 -1.41 0.53 6.00 -1.65 0.78 6.00 -2.54 1.99 5.32 -1.15 2.13 5.00 -2.12 2.21 5.00 -3.92 1.73 5.00 -4.37 1.18 5.00 -4.41 2.21 1.13 1.89 2.47 0.77 1.62 2.66 0.35 1.55 2.77 -0.06 1.65 2.83 -0.52 1.66 2.56 -0.19 1.95 2.92 -0.91 1.77 2.76 -0.59 1.90 2.98 -0.97 1.83 3.19 -1.30 1.72 2.69 -1.10 1.76 2.85 -1.44 1.63 2.99 -1.82 1.48 0.80 -0.19 4.04 0.57 -0.16 4.04 0.33 -0.19 4.03 0.11 -0.23 4.05 -0.09 -0.26 4.08 -0.34 -0.34 4.11 0.75 -0.54 4.09 0.52 -0.55 4.04 0.31 -0.61 4.01 0.13 -0.66 4.00 -0.03 -0.69 4.03 -0.25 -0.75 4.07 -0.52 -0.91 4.07 0.90 -1.04 4.09 0.65 -0.94 4.04 0.44 -0.95 3.97 0.27 -1.01 3.91 0.15 -1.08 3.90 0.04 -1.11 3.95 -0.15 -1.16 4.01 -0.41 -1.30 4.03 0.76 -1.41 4.05 0.52 -1.29 3.98 0.34 -1.27 3.87 0.23 -1.32 3.79 0.18 -1.39 3.78 0.11 -1.43 3.85 -0.05 -1.50 3.92 -0.30 -1.65 3.96 -0.56 -1.97 3.96 0.93 -2.05 4.01 0.63 -1.70 3.99 0.42 -1.54 3.89 0.28 -1.47 3.77 0.21 -1.48 3.66 0.20 -1.52 3.64 0.17 -1.59 3.72 0.03 -1.69 3.81 -0.21 -1.89 3.87 -0.48 -2.23 3.90 0.78 -2.21 3.97 0.55 -1.85 3.89 0.39 -1.65 3.77 0.28 -1.53 3.65 0.21 -1.49 3.54 0.17 -1.48 3.49 0.15 -1.56 3.55 0.03 -1.71 3.64 -0.19 -1.97 3.71 -0.46 -2.36 3.76 0.71 -2.23 3.89 0.56 -1.86 3.76 0.44 -1.64 3.61 0.34 -1.50 3.49 0.24 -1.41 3.39 0.14 -1.38 3.33 0.06 -1.46 3.35 -0.06 -1.64 3.41 -0.26 -1.93 3.47 -0.50 -2.36 3.52 0.75 -2.11 3.75 0.65 -1.77 3.56 0.55 -1.56 3.40 0.44 -1.40 3.28 0.29 -1.28 3.19 0.11 -1.22 3.12 -0.06 -1.30 3.11 -0.20 -1.51 3.14 -0.37 -1.84 3.17 -0.58 -2.27 3.21 0.92 -1.87 3.50 0.85 -1.58 3.26 0.73 -1.37 3.10 -0.52 -1.67 2.85 -0.66 -2.12 2.89 1.17 -1.54 3.13 2.39 -2.02 1.57 -1.77 -4.03 -3.41 2.42 -2.35 0.47 -0.26 0.14 -3.45 -0.92 3.26 -1.74 -0.88 2.16 -3.78 -0.49 2.69 -2.88 0.04 3.39 -3.94 1.24 2.95 -4.15 1.98 2.63 -3.84 2.61 2.08 -2.81 -0.86 3.14 -2.34 -0.18 3.68 -3.29 1.98 4.84 -3.74 2.56 3.48 -2.31 -0.23 3.09 -1.15 0.20 3.43 -3.25 0.11 2.62 -2.14 0.49 4.44 -3.74 2.26 5.57 -2.75 2.58 3.57 -1.00 1.00 3.82 -2.12 2.35 6.05 -4.78 1.42 4.04 -3.16 1.19 2.10 -2.04 0.57 3.81 -2.15 0.37 6.04 -2.31 0.21 6.62 -2.28 0.25 6.79 -2.25 0.27 6.80 -2.24 0.30 6.63 -2.42 0.47 6.60 -3.06 2.10 5.63 -1.75 2.28 5.35 -3.46 0.99 6.00 -4.10 1.13 5.45 -2.90 1.05 5.42 -2.31 0.76 5.70 -2.12 1.74 5.09 -1.06 1.33 3.49 -0.15 1.96 5.00 -3.63 1.72 5.00 -4.61 2.81 -1.39 1.38 -2.74 -1.80 0.39 -2.82 -1.87 0.26 -2.93 -1.86 0.00 -2.91 -1.58 -0.95 0.51 1.04 3.56 0.30 1.03 3.62 0.13 0.97 3.68 -0.03 0.90 3.76 1.08 0.63 3.54 0.75 0.73 3.50 0.49 0.71 3.48 0.28 0.66 3.49 0.11 0.61 3.52 -0.03 0.59 3.58 -0.20 0.54 3.66 -0.45 0.38 3.74 1.43 0.21 3.61 1.04 0.33 3.56 0.72 0.32 3.49 0.47 0.26 3.41 0.27 0.18 3.36 0.12 0.13 3.37 -0.00 0.11 3.44 -0.16 0.09 3.54 -0.38 0.02 3.63 -0.64 -0.18 3.69 1.29 -0.10 3.63 0.95 -0.08 3.55 0.65 -0.14 3.43 0.42 -0.21 3.31 0.23 -0.29 3.23 0.11 -0.36 3.23 0.02 -0.39 3.30 -0.12 -0.39 3.42 -0.31 -0.41 3.53 -0.53 -0.52 3.61 -0.74 -0.80 3.64 1.44 -0.61 3.66 1.13 -0.48 3.62 0.82 -0.51 3.50 0.55 -0.57 3.34 0.34 -0.65 3.19 0.19 -0.73 3.08 0.11 -0.81 3.07 0.05 -0.83 3.15 -0.07 -0.83 3.28 -0.24 -0.83 3.41 -0.45 -0.90 3.51 -0.62 -1.09 3.59 1.25 -0.93 3.63 0.97 -0.85 3.56 0.70 -0.87 3.42 0.45 -0.93 3.25 0.26 -0.99 3.07 0.13 -1.07 2.94 0.09 -1.14 2.91 0.09 -1.17 3.01 -0.01 -1.18 3.15 -0.18 -1.19 3.27 -0.41 -1.25 3.39 -0.59 -1.41 3.50 -0.71 -1.76 3.59 1.43 -1.53 3.57 1.06 -1.23 3.57 0.81 -1.15 3.47 0.59 -1.13 3.31 0.40 -1.15 3.13 0.23 -1.17 2.95 0.02 -1.32 3.00 -0.17 -1.39 3.12 -0.41 -1.49 3.23 -0.60 -1.68 3.35 -0.73 -2.05 3.46 1.21 -1.71 3.59 0.90 -1.45 3.52 0.71 -1.35 3.36 0.55 -1.29 3.17 -0.47 -1.63 3.02 -0.67 -1.87 3.14 -0.80 -2.29 3.26 1.05 -1.83 3.62 0.81 -1.57 3.46 0.68 -1.47 3.23 -0.77 -1.95 2.85 -0.88 -2.40 2.99 1.03 -1.89 3.56 0.86 -1.59 3.30 0.79 -1.48 3.02 -0.89 -1.95 2.52 -1.01 -2.41 2.66 1.22 -1.80 3.33 1.07 -1.48 3.02 -1.09 -2.38 2.32 2.56 -2.34 0.72 -2.45 -3.62 -4.04 2.49 -1.71 -0.11 -0.87 0.36 -3.55 -0.48 -1.28 -3.31 1.74 -0.00 -2.62 3.30 0.99 -2.35 -1.01 3.24 -1.08 -1.32 2.09 -4.04 -0.21 2.15 -2.93 0.65 3.04 -4.19 2.54 2.74 -4.16 2.94 1.73 -2.95 -0.99 2.97 -2.23 -0.79 2.88 -4.39 2.20 1.84 -2.53 2.60 4.44 -3.56 3.00 3.20 -2.31 3.13 2.31 -1.24 -0.23 2.95 -1.04 -0.07 3.16 -3.38 1.82 2.31 -2.74 0.25 3.05 -2.67 0.60 4.57 -4.08 2.72 4.64 -2.37 2.78 3.08 -1.29 0.71 3.42 -1.91 1.85 4.96 -4.51 1.44 6.00 -5.12 1.41 2.85 -2.98 1.06 1.68 -2.41 0.86 1.82 -2.44 0.82 3.39 -2.71 0.60 6.39 -2.98 0.41 6.66 -3.05 0.08 6.98 -2.98 0.18 7.00 -3.39 2.37 4.72 -1.65 1.17 3.79 -1.63 2.04 5.84 -4.78 1.68 6.00 -5.20 1.31 6.00 -4.91 1.25 5.59 -3.87 1.32 5.20 -3.01 1.14 5.65 -2.79 1.37 5.86 -3.83 2.05 4.20 -1.02 0.92 3.58 -1.30 1.54 5.00 -4.11 -2.69 -2.07 0.78 -2.86 -2.31 0.53 2.94 -1.53 1.04 -3.04 -2.50 0.10 3.30 -1.30 0.80 -3.19 -2.56 -0.45 3.60 -1.37 0.87 -3.28 -2.47 -1.17 3.98 -1.22 0.85 0.52 1.63 3.10 0.31 1.59 3.15 0.16 1.50 3.23 0.04 1.39 3.32 1.07 1.37 3.01 0.74 1.41 2.92 0.50 1.34 2.91 0.29 1.26 2.93 0.16 1.20 2.98 0.05 1.16 3.05 -0.09 1.09 3.15 -0.31 0.96 3.25 1.87 0.95 3.15 1.44 1.04 3.04 1.03 1.05 2.93 -0.46 0.53 3.19 2.21 0.92 3.09 2.03 0.78 3.16 1.68 0.74 3.12 1.32 0.67 3.01 -0.53 0.10 3.14 1.76 0.97 3.09 1.96 0.68 3.13 1.77 0.51 3.17 1.47 0.37 3.10 1.18 0.23 2.98 -0.56 -0.36 3.11 1.71 0.46 3.09 1.74 0.31 3.12 1.51 0.16 3.12 1.25 -0.01 3.05 -0.50 -0.75 3.04 -0.60 -0.93 3.11 1.68 -0.07 3.12 1.54 -0.10 3.12 1.28 -0.24 3.07 1.05 -0.42 2.97 -0.51 -1.15 2.92 -0.62 -1.32 3.01 1.62 -0.57 3.14 1.36 -0.51 3.14 1.08 -0.62 3.04 -0.68 -1.70 2.87 1.58 -1.12 3.17 1.22 -0.91 3.17 0.90 -0.95 3.04 -0.78 -2.00 2.67 1.14 -1.26 3.16 0.78 -1.23 2.99 -0.91 -2.18 2.41 1.24 -1.50 3.01 1.52 -1.52 2.75 1.82 -1.34 2.36 -3.77 -3.77 -2.90 -1.54 1.94 -1.72 -3.72 -4.17 -4.70 -0.88 2.97 -1.02 -1.44 1.52 -3.23 -1.27 -0.26 -3.90 -0.24 -0.19 -3.69 -1.23 3.46 -0.35 -1.61 2.28 -3.40 -0.99 2.12 -4.69 0.34 1.66 -3.22 3.53 1.73 -2.71 -1.07 2.87 -1.82 -0.96 2.54 -4.25 0.53 3.06 -5.05 2.06 1.01 -2.54 0.42 2.70 -3.45 3.27 3.90 -3.41 3.51 2.96 -2.29 3.35 2.45 -1.31 -0.31 2.97 -0.86 -0.20 2.77 -3.36 1.04 3.81 -4.91 1.74 4.75 -5.53 1.90 3.85 -4.60 1.63 1.48 -2.83 0.40 4.07 -3.51 3.21 3.85 -2.40 2.97 2.85 -1.42 0.54 3.11 -1.79 1.22 4.00 -3.68 1.77 5.29 -5.49 1.55 5.74 -5.87 1.51 4.18 -4.46 1.17 2.18 -3.06 0.90 1.50 -2.85 0.87 2.19 -3.08 0.98 5.96 -3.61 2.26 5.76 -3.60 2.59 3.59 -1.70 0.87 3.85 -2.53 1.42 4.85 -4.46 1.30 4.87 -4.35 1.24 4.35 -3.41 1.34 4.92 -3.21 1.87 5.01 -3.00 -2.75 -2.82 0.94 -2.53 -1.90 1.22 -2.85 -3.27 0.99 2.60 -1.51 1.52 -2.80 -2.26 0.99 2.88 -1.63 1.43 -2.95 -1.61 0.39 -3.09 -2.61 0.50 3.23 -1.73 1.36 -3.29 -1.71 -0.10 -3.38 -2.86 -0.03 3.55 -1.89 1.32 3.38 -0.47 0.63 -3.57 -1.73 -0.60 -3.66 -2.95 -0.63 3.93 -1.97 1.38 3.62 -0.54 0.55 -3.91 -2.90 -1.29 4.35 -1.91 1.39 3.81 -0.53 0.43 2.86 1.21 1.95 0.73 1.19 3.09 0.57 1.71 2.85 0.09 1.42 3.13 -0.01 0.95 3.37 1.00 1.77 2.58 0.74 1.86 2.41 2.02 1.56 2.81 1.79 1.60 2.68 1.40 1.63 2.50 2.34 2.14 2.63 2.22 1.87 2.56 2.02 1.58 2.59 1.70 1.40 2.51 2.18 2.06 2.62 2.02 1.69 2.57 1.80 1.31 2.56 1.98 1.62 2.61 1.78 1.28 2.57 2.02 1.14 2.76 1.83 1.05 2.60 1.85 0.45 2.64 1.65 0.51 2.61 1.76 -0.17 2.58 1.78 -0.78 2.50 2.71 -2.87 0.37 -2.84 -0.88 -2.15 -0.92 3.21 0.18 0.05 -2.02 -2.57 -1.67 2.31 -2.19 -1.76 0.28 -3.79 -0.96 -0.43 -3.62 -1.49 3.20 -0.19 -1.90 2.38 -2.35 -1.56 1.48 -4.23 0.59 0.73 -3.86 1.20 1.36 -3.65 3.79 1.77 -2.36 -1.25 2.93 -1.27 -1.23 2.07 -3.74 0.52 2.06 -4.65 1.76 1.55 -3.90 1.05 2.30 -3.82 2.24 3.91 -4.95 3.39 4.01 -4.25 3.96 3.37 -3.07 3.75 2.85 -2.27 3.29 2.56 -1.46 -0.36 2.40 -3.16 0.79 3.01 -4.56 1.49 3.55 -4.84 1.62 2.70 -4.20 1.34 1.09 -3.15 1.26 4.77 -4.85 1.03 3.83 -4.04 1.19 3.91 -4.36 1.04 3.16 -3.76 0.82 2.05 -3.23 0.73 1.77 -3.30 0.95 3.49 -3.76 1.07 6.57 -4.35 1.68 5.93 -5.50 2.70 4.27 -3.12 -0.07 3.36 -2.13 0.20 3.54 -2.58 0.56 3.69 -2.61 1.09 4.47 -3.19 -2.44 -2.28 1.43 2.61 -1.04 1.63 -2.76 -2.05 1.09 -2.78 -2.78 1.26 2.99 -2.81 1.46 2.95 -1.31 1.58 -2.95 -1.84 0.69 -3.13 -2.51 0.72 -3.03 -3.48 0.86 3.32 -1.56 1.57 3.09 -0.75 1.14 -3.38 -2.09 0.39 -3.56 -2.84 0.35 3.62 -1.88 1.62 3.39 -0.96 1.16 -3.35 -1.65 0.18 -3.81 -2.27 0.16 -3.99 -3.10 0.02 3.90 -2.23 1.74 3.61 -1.23 1.34 -3.71 -1.68 0.00 -4.21 -2.40 0.02 -4.43 -3.26 -0.21 4.27 -2.41 1.88 3.90 -1.30 1.47 -3.37 -0.88 -0.32 -4.02 -1.56 -0.14 -3.61 -0.80 -0.46 -4.31 -1.44 -0.21 -4.91 -2.34 0.05 -3.79 -0.86 -0.42 -4.55 -1.48 -0.04 -5.23 -2.40 0.56 -3.92 -0.98 -0.11 -4.73 -1.64 0.54 -5.47 -2.62 1.64 2.94 -0.22 1.19 -3.30 -0.25 -0.11 -4.01 -1.10 0.42 -4.85 -1.88 1.66 3.69 1.71 1.76 3.68 1.62 1.81 3.39 1.53 1.75 0.75 0.56 3.32 0.59 0.83 3.25 0.17 0.11 3.66 2.12 1.93 2.18 1.94 1.87 2.10 2.43 2.31 2.12 2.10 2.14 1.93 1.86 1.78 1.93 2.21 2.26 2.03 1.87 1.92 1.91 2.49 1.84 2.28 1.99 1.78 1.97 2.24 1.27 2.07 3.78 2.15 2.36 2.67 1.62 2.37 2.60 -1.88 -0.48 1.88 -2.16 -1.23 -2.21 1.57 -2.24 -0.31 -1.88 -2.73 -1.81 2.72 -1.18 -2.05 0.60 -3.13 -1.30 -0.96 -3.12 -1.54 2.89 -0.24 -2.09 2.77 -1.40 -1.89 1.07 -3.14 2.82 1.49 -4.06 4.46 2.66 -4.04 4.39 2.25 -3.16 3.82 1.90 -1.96 -1.40 2.76 -0.87 -1.57 2.13 -2.75 -0.11 1.32 -3.68 0.47 0.65 -3.33 0.62 2.22 -3.42 0.76 1.67 -3.10 0.97 1.41 -2.97 1.35 1.45 -3.31 2.21 2.02 -4.10 3.63 3.07 -4.29 4.42 3.48 -3.44 4.31 3.33 -2.63 3.73 3.01 -2.15 -0.63 2.56 -2.24 0.04 2.46 -3.56 0.81 2.55 -4.02 0.97 2.14 -3.85 0.81 1.21 -3.35 0.42 0.61 -3.49 0.72 2.67 -4.22 1.03 5.18 -4.60 1.86 4.29 -4.71 2.60 4.29 -5.04 3.20 3.91 -4.42 3.65 3.50 -3.06 -0.41 3.17 -2.23 -0.38 3.21 -2.71 -0.13 2.97 -2.91 0.20 2.44 -3.01 0.49 2.51 -3.42 1.02 4.56 -4.20 0.85 6.17 -5.31 1.94 5.16 -5.05 2.64 4.14 -3.80 2.66 3.20 -2.45 -0.67 3.06 -1.40 -0.23 3.38 -1.74 0.57 4.08 -2.55 2.74 -1.39 1.65 -2.25 -2.29 1.31 -1.63 -2.55 1.68 3.05 -1.78 1.60 2.93 -1.07 1.59 -2.76 -1.91 0.74 -3.01 -2.36 0.78 -2.87 -2.88 0.96 -2.18 -3.39 1.28 3.39 -2.19 1.58 3.28 -1.39 1.66 3.05 -0.86 1.18 -2.82 -1.79 0.61 -3.25 -2.23 0.65 -3.55 -2.73 0.61 -3.42 -3.39 0.70 3.72 -2.66 1.53 3.59 -1.74 1.75 3.28 -1.19 1.41 -3.25 -2.01 0.60 -3.69 -2.55 0.66 -3.98 -3.14 0.61 -3.89 -3.86 0.57 3.79 -2.19 1.96 3.43 -1.53 1.76 -3.17 -1.51 0.32 -3.67 -2.15 0.64 -4.09 -2.82 0.82 -4.39 -3.46 0.81 -4.34 -4.23 0.66 4.09 -2.45 2.18 3.70 -1.65 2.07 3.30 -0.94 1.39 -3.54 -1.42 0.25 -4.09 -2.19 0.73 -4.51 -2.97 1.10 -4.74 -3.73 1.29 -4.73 -4.52 1.13 4.00 -1.71 2.34 3.56 -0.95 1.64 -3.87 -1.30 0.27 -4.51 -2.12 0.92 -4.90 -3.04 1.55 4.31 -1.71 2.75 3.82 -0.88 1.88 -3.34 -0.56 -0.20 -4.13 -1.21 0.42 -4.84 -2.02 1.27 -5.27 -3.03 2.33 4.00 -0.73 2.13 -3.47 -0.47 -0.10 -4.30 -1.14 0.74 -5.10 -2.00 1.92 4.03 -0.69 2.86 3.23 -0.13 1.04 -3.58 -0.43 0.05 -4.37 -1.15 1.21 -5.17 -1.99 2.93 3.08 -0.24 1.88 2.11 1.86 1.73 2.52 2.12 1.85 2.06 2.11 1.40 2.24 2.23 1.53 2.60 1.79 1.80 1.41 -3.32 0.25 3.29 1.80 1.74 2.84 1.59 1.84 2.33 1.23 2.02 -2.08 2.38 -0.21 -2.58 0.49 -2.78 -2.50 -1.56 -3.26 -2.20 2.59 -0.41 -2.31 1.72 -1.94 0.41 -1.07 -2.89 2.79 0.53 -3.68 0.21 -0.70 -3.09 0.41 -0.33 -3.25 0.61 -0.04 -3.30 0.77 0.16 -3.24 0.92 0.21 -3.10 1.01 0.18 -2.94 1.13 0.14 -2.84 1.51 0.19 -2.94 2.72 0.77 -3.48 4.94 2.33 -3.82 5.40 2.86 -3.56 4.99 2.81 -3.26 4.35 2.47 -2.49 0.31 0.12 -3.56 0.64 1.29 -4.09 0.81 2.80 -4.57 0.77 3.68 -4.77 0.75 3.44 -4.49 0.92 2.74 -3.99 1.28 2.19 -3.52 1.75 1.78 -3.41 2.44 1.63 -3.65 4.73 3.13 -3.42 4.69 3.48 -2.79 3.99 3.19 -2.30 -0.88 2.93 -1.60 -1.00 2.99 -2.03 -0.82 2.86 -2.41 -0.35 2.31 -2.64 0.04 1.25 -2.93 0.17 0.69 -3.33 0.33 1.26 -3.92 0.83 3.80 -4.82 0.65 6.26 -5.44 1.72 4.33 -4.34 2.60 3.56 -4.04 3.28 3.23 -3.88 3.63 3.28 -3.24 3.49 3.31 -2.25 -1.05 3.22 -1.60 -0.60 3.12 -2.04 0.08 3.24 -2.78 0.79 4.42 -3.91 1.23 6.31 -5.62 0.84 5.91 -5.11 1.92 4.38 -3.81 2.35 3.64 -2.97 -0.52 3.17 -1.15 2.25 -1.78 2.03 2.46 -1.26 1.87 2.82 -1.72 1.82 2.91 -1.29 1.63 -2.14 -2.49 1.16 -1.09 -2.48 1.68 -0.40 -2.25 2.12 0.33 -1.94 2.44 3.27 -2.15 1.80 3.26 -1.68 1.77 3.03 -1.36 1.60 -2.82 -2.32 0.87 -3.06 -2.71 0.92 -2.79 -3.04 1.07 -1.65 -3.14 1.57 -0.61 -2.92 2.03 3.71 -2.68 1.73 3.56 -2.15 1.88 3.32 -1.75 1.79 3.02 -1.31 1.47 -2.92 -2.17 0.97 -3.24 -2.70 1.12 -3.45 -3.18 1.18 -3.24 -3.57 1.26 -2.07 -3.74 1.62 -0.77 -3.51 2.05 3.85 -2.64 2.04 3.49 -2.18 2.13 3.14 -1.68 1.89 -2.98 -1.81 0.77 -3.34 -2.40 1.22 -3.60 -3.03 1.52 -3.73 -3.61 1.74 -3.49 -4.06 1.84 -2.29 -4.20 2.02 3.77 -2.47 2.45 3.37 -1.84 2.34 3.08 -1.17 1.72 -3.44 -1.82 0.93 -3.80 -2.53 1.55 -4.00 -3.24 2.08 -4.01 -3.99 2.55 -3.72 -4.53 2.83 -2.56 -4.51 2.91 4.08 -2.65 2.84 3.71 -1.92 2.69 3.39 -1.24 2.05 -3.30 -0.98 0.40 -3.89 -1.75 1.13 -4.27 -2.53 1.96 -4.42 -3.36 2.83 -4.30 -4.24 3.59 -4.01 -4.97 4.08 4.10 -1.96 3.05 3.75 -1.24 2.32 -3.57 -0.86 0.50 -4.26 -1.61 1.42 -4.71 -2.42 2.51 -4.80 -3.29 3.80 4.06 -1.18 2.57 3.44 -0.26 0.95 -3.73 -0.70 0.66 -4.51 -1.45 1.83 -5.04 -2.21 3.29 4.18 -1.15 3.12 3.49 -0.20 1.20 -3.17 0.03 -0.25 -3.84 -0.62 0.75 -4.61 -1.27 2.23 3.24 -0.33 1.94 -3.00 0.59 -1.17 -3.44 0.05 -0.41 -3.93 -0.70 0.82 -4.52 -1.20 2.73 -2.47 0.94 -2.32 -2.99 0.75 -1.83 -3.41 0.43 -1.26 -3.71 -0.25 -0.24 -1.95 0.34