# vtk DataFile Version 2.0
VTK from Matlab
ASCII
DATASET STRUCTURED_GRID
DIMENSIONS 11705 1 1
POINTS 11705 float
33.00 79.00 13.00 34.00 73.00 14.00 34.00 74.00 14.00 38.00 74.00 14.00 34.00 75.00 14.00 37.00 75.00 14.00 38.00 75.00 14.00 31.00 76.00 14.00 34.00 76.00 14.00 37.00 76.00 14.00 38.00 76.00 14.00 31.00 77.00 14.00 34.00 77.00 14.00 35.00 77.00 14.00 36.00 77.00 14.00 37.00 77.00 14.00 38.00 77.00 14.00 41.00 77.00 14.00 28.00 78.00 14.00 30.00 78.00 14.00 31.00 78.00 14.00 33.00 78.00 14.00 34.00 78.00 14.00 35.00 78.00 14.00 36.00 78.00 14.00 37.00 78.00 14.00 38.00 78.00 14.00 39.00 78.00 14.00 41.00 78.00 14.00 30.00 79.00 14.00 31.00 79.00 14.00 32.00 79.00 14.00 33.00 79.00 14.00 34.00 79.00 14.00 35.00 79.00 14.00 36.00 79.00 14.00 37.00 79.00 14.00 38.00 79.00 14.00 39.00 79.00 14.00 41.00 79.00 14.00 30.00 80.00 14.00 31.00 80.00 14.00 32.00 80.00 14.00 33.00 80.00 14.00 34.00 80.00 14.00 35.00 80.00 14.00 36.00 80.00 14.00 37.00 80.00 14.00 38.00 80.00 14.00 39.00 80.00 14.00 41.00 80.00 14.00 42.00 80.00 14.00 31.00 81.00 14.00 32.00 81.00 14.00 33.00 81.00 14.00 34.00 81.00 14.00 35.00 81.00 14.00 36.00 81.00 14.00 38.00 81.00 14.00 39.00 81.00 14.00 41.00 81.00 14.00 42.00 81.00 14.00 32.00 82.00 14.00 33.00 82.00 14.00 34.00 82.00 14.00 35.00 82.00 14.00 36.00 82.00 14.00 38.00 82.00 14.00 39.00 82.00 14.00 32.00 83.00 14.00 33.00 83.00 14.00 34.00 83.00 14.00 35.00 83.00 14.00 38.00 83.00 14.00 32.00 84.00 14.00 33.00 84.00 14.00 34.00 84.00 14.00 35.00 84.00 14.00 38.00 84.00 14.00 31.00 85.00 14.00 32.00 85.00 14.00 33.00 85.00 14.00 34.00 85.00 14.00 35.00 85.00 14.00 37.00 85.00 14.00 38.00 85.00 14.00 31.00 86.00 14.00 32.00 86.00 14.00 33.00 86.00 14.00 34.00 86.00 14.00 35.00 86.00 14.00 37.00 86.00 14.00 38.00 86.00 14.00 39.00 86.00 14.00 31.00 87.00 14.00 32.00 87.00 14.00 33.00 87.00 14.00 37.00 87.00 14.00 38.00 87.00 14.00 39.00 87.00 14.00 28.00 99.00 14.00 36.00 58.00 15.00 32.00 71.00 15.00 32.00 72.00 15.00 34.00 72.00 15.00 35.00 72.00 15.00 29.00 73.00 15.00 30.00 73.00 15.00 31.00 73.00 15.00 32.00 73.00 15.00 33.00 73.00 15.00 34.00 73.00 15.00 35.00 73.00 15.00 36.00 73.00 15.00 37.00 73.00 15.00 29.00 74.00 15.00 30.00 74.00 15.00 31.00 74.00 15.00 32.00 74.00 15.00 33.00 74.00 15.00 34.00 74.00 15.00 35.00 74.00 15.00 36.00 74.00 15.00 37.00 74.00 15.00 38.00 74.00 15.00 26.00 75.00 15.00 28.00 75.00 15.00 29.00 75.00 15.00 30.00 75.00 15.00 31.00 75.00 15.00 32.00 75.00 15.00 33.00 75.00 15.00 34.00 75.00 15.00 35.00 75.00 15.00 36.00 75.00 15.00 37.00 75.00 15.00 38.00 75.00 15.00 39.00 75.00 15.00 40.00 75.00 15.00 26.00 76.00 15.00 28.00 76.00 15.00 29.00 76.00 15.00 30.00 76.00 15.00 31.00 76.00 15.00 32.00 76.00 15.00 33.00 76.00 15.00 34.00 76.00 15.00 35.00 76.00 15.00 36.00 76.00 15.00 37.00 76.00 15.00 38.00 76.00 15.00 39.00 76.00 15.00 40.00 76.00 15.00 26.00 77.00 15.00 27.00 77.00 15.00 28.00 77.00 15.00 29.00 77.00 15.00 30.00 77.00 15.00 31.00 77.00 15.00 32.00 77.00 15.00 33.00 77.00 15.00 34.00 77.00 15.00 35.00 77.00 15.00 36.00 77.00 15.00 37.00 77.00 15.00 38.00 77.00 15.00 39.00 77.00 15.00 40.00 77.00 15.00 41.00 77.00 15.00 24.00 78.00 15.00 26.00 78.00 15.00 27.00 78.00 15.00 28.00 78.00 15.00 29.00 78.00 15.00 30.00 78.00 15.00 31.00 78.00 15.00 32.00 78.00 15.00 33.00 78.00 15.00 34.00 78.00 15.00 35.00 78.00 15.00 36.00 78.00 15.00 37.00 78.00 15.00 38.00 78.00 15.00 39.00 78.00 15.00 40.00 78.00 15.00 41.00 78.00 15.00 42.00 78.00 15.00 24.00 79.00 15.00 26.00 79.00 15.00 27.00 79.00 15.00 28.00 79.00 15.00 29.00 79.00 15.00 30.00 79.00 15.00 31.00 79.00 15.00 32.00 79.00 15.00 33.00 79.00 15.00 34.00 79.00 15.00 35.00 79.00 15.00 36.00 79.00 15.00 37.00 79.00 15.00 38.00 79.00 15.00 39.00 79.00 15.00 40.00 79.00 15.00 41.00 79.00 15.00 42.00 79.00 15.00 43.00 79.00 15.00 24.00 80.00 15.00 25.00 80.00 15.00 26.00 80.00 15.00 27.00 80.00 15.00 28.00 80.00 15.00 29.00 80.00 15.00 30.00 80.00 15.00 31.00 80.00 15.00 32.00 80.00 15.00 33.00 80.00 15.00 34.00 80.00 15.00 35.00 80.00 15.00 36.00 80.00 15.00 37.00 80.00 15.00 38.00 80.00 15.00 39.00 80.00 15.00 40.00 80.00 15.00 41.00 80.00 15.00 42.00 80.00 15.00 43.00 80.00 15.00 44.00 80.00 15.00 24.00 81.00 15.00 25.00 81.00 15.00 26.00 81.00 15.00 27.00 81.00 15.00 28.00 81.00 15.00 29.00 81.00 15.00 30.00 81.00 15.00 31.00 81.00 15.00 32.00 81.00 15.00 33.00 81.00 15.00 34.00 81.00 15.00 35.00 81.00 15.00 36.00 81.00 15.00 37.00 81.00 15.00 38.00 81.00 15.00 39.00 81.00 15.00 40.00 81.00 15.00 41.00 81.00 15.00 42.00 81.00 15.00 43.00 81.00 15.00 44.00 81.00 15.00 24.00 82.00 15.00 25.00 82.00 15.00 26.00 82.00 15.00 27.00 82.00 15.00 28.00 82.00 15.00 29.00 82.00 15.00 30.00 82.00 15.00 31.00 82.00 15.00 32.00 82.00 15.00 33.00 82.00 15.00 34.00 82.00 15.00 35.00 82.00 15.00 36.00 82.00 15.00 37.00 82.00 15.00 38.00 82.00 15.00 39.00 82.00 15.00 40.00 82.00 15.00 42.00 82.00 15.00 43.00 82.00 15.00 44.00 82.00 15.00 24.00 83.00 15.00 25.00 83.00 15.00 26.00 83.00 15.00 27.00 83.00 15.00 28.00 83.00 15.00 29.00 83.00 15.00 30.00 83.00 15.00 31.00 83.00 15.00 32.00 83.00 15.00 33.00 83.00 15.00 34.00 83.00 15.00 35.00 83.00 15.00 36.00 83.00 15.00 37.00 83.00 15.00 38.00 83.00 15.00 39.00 83.00 15.00 40.00 83.00 15.00 43.00 83.00 15.00 44.00 83.00 15.00 23.00 84.00 15.00 24.00 84.00 15.00 25.00 84.00 15.00 26.00 84.00 15.00 27.00 84.00 15.00 28.00 84.00 15.00 29.00 84.00 15.00 30.00 84.00 15.00 31.00 84.00 15.00 32.00 84.00 15.00 33.00 84.00 15.00 34.00 84.00 15.00 35.00 84.00 15.00 36.00 84.00 15.00 37.00 84.00 15.00 38.00 84.00 15.00 39.00 84.00 15.00 40.00 84.00 15.00 44.00 84.00 15.00 22.00 85.00 15.00 23.00 85.00 15.00 24.00 85.00 15.00 25.00 85.00 15.00 26.00 85.00 15.00 27.00 85.00 15.00 28.00 85.00 15.00 29.00 85.00 15.00 30.00 85.00 15.00 31.00 85.00 15.00 32.00 85.00 15.00 33.00 85.00 15.00 34.00 85.00 15.00 35.00 85.00 15.00 36.00 85.00 15.00 37.00 85.00 15.00 38.00 85.00 15.00 39.00 85.00 15.00 40.00 85.00 15.00 44.00 85.00 15.00 22.00 86.00 15.00 23.00 86.00 15.00 24.00 86.00 15.00 25.00 86.00 15.00 26.00 86.00 15.00 27.00 86.00 15.00 28.00 86.00 15.00 29.00 86.00 15.00 30.00 86.00 15.00 31.00 86.00 15.00 32.00 86.00 15.00 33.00 86.00 15.00 34.00 86.00 15.00 35.00 86.00 15.00 36.00 86.00 15.00 37.00 86.00 15.00 38.00 86.00 15.00 39.00 86.00 15.00 40.00 86.00 15.00 44.00 86.00 15.00 24.00 87.00 15.00 25.00 87.00 15.00 27.00 87.00 15.00 29.00 87.00 15.00 30.00 87.00 15.00 31.00 87.00 15.00 32.00 87.00 15.00 33.00 87.00 15.00 34.00 87.00 15.00 36.00 87.00 15.00 37.00 87.00 15.00 38.00 87.00 15.00 39.00 87.00 15.00 40.00 87.00 15.00 42.00 87.00 15.00 43.00 87.00 15.00 27.00 88.00 15.00 28.00 88.00 15.00 29.00 88.00 15.00 30.00 88.00 15.00 31.00 88.00 15.00 32.00 88.00 15.00 38.00 88.00 15.00 39.00 88.00 15.00 40.00 88.00 15.00 42.00 88.00 15.00 43.00 88.00 15.00 27.00 89.00 15.00 29.00 89.00 15.00 30.00 89.00 15.00 31.00 89.00 15.00 32.00 89.00 15.00 40.00 89.00 15.00 41.00 89.00 15.00 42.00 89.00 15.00 28.00 90.00 15.00 29.00 90.00 15.00 27.00 98.00 15.00 27.00 99.00 15.00 28.00 99.00 15.00 40.00 99.00 15.00 41.00 99.00 15.00 42.00 99.00 15.00 41.00 100.00 15.00 30.00 52.00 16.00 31.00 52.00 16.00 32.00 52.00 16.00 34.00 52.00 16.00 35.00 52.00 16.00 36.00 52.00 16.00 29.00 53.00 16.00 30.00 53.00 16.00 31.00 53.00 16.00 32.00 53.00 16.00 33.00 53.00 16.00 34.00 53.00 16.00 35.00 53.00 16.00 36.00 53.00 16.00 29.00 54.00 16.00 30.00 54.00 16.00 31.00 54.00 16.00 32.00 54.00 16.00 33.00 54.00 16.00 34.00 54.00 16.00 35.00 54.00 16.00 36.00 54.00 16.00 37.00 54.00 16.00 29.00 55.00 16.00 30.00 55.00 16.00 31.00 55.00 16.00 32.00 55.00 16.00 33.00 55.00 16.00 34.00 55.00 16.00 35.00 55.00 16.00 36.00 55.00 16.00 37.00 55.00 16.00 29.00 56.00 16.00 30.00 56.00 16.00 31.00 56.00 16.00 32.00 56.00 16.00 33.00 56.00 16.00 34.00 56.00 16.00 35.00 56.00 16.00 36.00 56.00 16.00 37.00 56.00 16.00 29.00 57.00 16.00 30.00 57.00 16.00 31.00 57.00 16.00 32.00 57.00 16.00 33.00 57.00 16.00 34.00 57.00 16.00 35.00 57.00 16.00 36.00 57.00 16.00 37.00 57.00 16.00 28.00 58.00 16.00 29.00 58.00 16.00 30.00 58.00 16.00 31.00 58.00 16.00 32.00 58.00 16.00 33.00 58.00 16.00 34.00 58.00 16.00 35.00 58.00 16.00 36.00 58.00 16.00 37.00 58.00 16.00 38.00 58.00 16.00 39.00 58.00 16.00 29.00 59.00 16.00 30.00 59.00 16.00 31.00 59.00 16.00 32.00 59.00 16.00 33.00 59.00 16.00 34.00 59.00 16.00 35.00 59.00 16.00 36.00 59.00 16.00 37.00 59.00 16.00 38.00 59.00 16.00 30.00 60.00 16.00 31.00 60.00 16.00 32.00 60.00 16.00 33.00 60.00 16.00 34.00 60.00 16.00 35.00 60.00 16.00 36.00 60.00 16.00 37.00 60.00 16.00 38.00 60.00 16.00 31.00 61.00 16.00 32.00 61.00 16.00 33.00 61.00 16.00 34.00 61.00 16.00 35.00 61.00 16.00 36.00 61.00 16.00 37.00 61.00 16.00 32.00 62.00 16.00 33.00 62.00 16.00 34.00 62.00 16.00 35.00 62.00 16.00 32.00 71.00 16.00 34.00 71.00 16.00 29.00 72.00 16.00 30.00 72.00 16.00 31.00 72.00 16.00 32.00 72.00 16.00 33.00 72.00 16.00 34.00 72.00 16.00 35.00 72.00 16.00 36.00 72.00 16.00 37.00 72.00 16.00 25.00 73.00 16.00 27.00 73.00 16.00 28.00 73.00 16.00 29.00 73.00 16.00 30.00 73.00 16.00 31.00 73.00 16.00 32.00 73.00 16.00 33.00 73.00 16.00 34.00 73.00 16.00 35.00 73.00 16.00 36.00 73.00 16.00 37.00 73.00 16.00 38.00 73.00 16.00 39.00 73.00 16.00 25.00 74.00 16.00 26.00 74.00 16.00 27.00 74.00 16.00 28.00 74.00 16.00 29.00 74.00 16.00 30.00 74.00 16.00 31.00 74.00 16.00 32.00 74.00 16.00 33.00 74.00 16.00 34.00 74.00 16.00 35.00 74.00 16.00 36.00 74.00 16.00 37.00 74.00 16.00 38.00 74.00 16.00 39.00 74.00 16.00 40.00 74.00 16.00 41.00 74.00 16.00 25.00 75.00 16.00 26.00 75.00 16.00 27.00 75.00 16.00 28.00 75.00 16.00 29.00 75.00 16.00 30.00 75.00 16.00 31.00 75.00 16.00 32.00 75.00 16.00 33.00 75.00 16.00 34.00 75.00 16.00 35.00 75.00 16.00 36.00 75.00 16.00 37.00 75.00 16.00 38.00 75.00 16.00 39.00 75.00 16.00 40.00 75.00 16.00 41.00 75.00 16.00 42.00 75.00 16.00 24.00 76.00 16.00 25.00 76.00 16.00 26.00 76.00 16.00 27.00 76.00 16.00 28.00 76.00 16.00 29.00 76.00 16.00 30.00 76.00 16.00 31.0
[...]
POINT_DATA 11705
VECTORS vector_field float
0.25 -4.62 0.66 1.27 -8.55 5.88 1.28 -8.47 6.52 2.65 -8.30 7.27 1.26 -7.85 7.09 2.50 -8.42 7.52 2.88 -8.01 8.18 -0.23 -6.91 7.61 1.14 -6.78 7.71 2.67 -7.68 8.37 2.98 -7.49 9.32 0.03 -5.91 6.86 0.77 -5.64 7.30 1.23 -6.08 7.67 1.90 -6.53 8.11 2.38 -6.75 8.76 2.68 -6.71 9.66 2.47 -5.56 11.43 -1.71 -7.87 8.84 -0.25 -6.35 5.51 -0.02 -5.95 4.88 0.24 -5.51 5.24 0.35 -5.48 5.56 0.57 -5.67 6.05 0.94 -5.99 6.51 1.39 -6.26 7.01 1.75 -6.39 7.62 1.97 -6.39 8.35 1.90 -6.28 8.64 -0.29 -6.78 2.91 -0.12 -6.46 2.39 -0.02 -6.12 2.67 0.04 -5.83 3.09 0.09 -5.72 3.41 0.18 -5.86 3.97 0.39 -6.09 4.47 0.68 -6.36 4.80 1.04 -6.61 4.94 1.41 -6.83 4.95 2.02 -7.36 4.49 -0.26 -7.06 0.31 -0.08 -6.46 0.38 0.00 -5.89 1.09 0.07 -5.44 1.70 0.14 -5.33 1.83 0.22 -5.77 1.83 0.41 -6.18 2.14 0.70 -6.47 2.42 1.09 -6.71 2.51 1.56 -6.86 2.42 2.62 -7.40 2.22 2.92 -7.87 1.99 0.07 -5.68 0.07 0.16 -4.96 1.01 0.27 -4.40 1.80 0.37 -4.27 1.85 0.53 -4.81 1.23 0.81 -5.42 0.71 1.38 -6.25 0.60 1.71 -6.45 0.46 2.55 -6.97 0.43 2.89 -7.38 0.63 0.23 -4.35 0.94 0.36 -3.81 2.23 0.46 -3.63 2.58 0.64 -4.02 1.99 1.03 -4.65 0.93 1.59 -5.64 -0.02 1.86 -5.95 -0.29 0.31 -3.96 1.23 0.46 -3.41 2.98 0.53 -3.20 3.40 0.68 -3.48 2.93 1.59 -5.13 -0.02 0.40 -3.66 2.03 0.53 -3.12 3.62 0.51 -2.86 3.94 0.55 -3.05 3.65 1.62 -4.75 0.13 0.38 -3.96 0.09 0.54 -3.41 2.72 0.59 -2.90 3.89 0.45 -2.56 4.17 0.31 -2.66 4.07 1.22 -3.77 1.82 1.59 -4.39 0.46 0.52 -3.68 0.81 0.70 -3.18 2.98 0.65 -2.66 3.84 0.43 -2.25 4.07 0.18 -2.25 4.06 0.84 -3.31 2.40 1.40 -3.98 0.85 1.59 -4.30 -0.24 0.71 -3.30 1.36 0.84 -2.84 2.92 0.74 -2.35 3.53 0.56 -2.79 2.58 1.20 -3.41 1.09 1.41 -3.72 -0.06 1.21 6.78 -3.64 -0.28 -20.69 9.84 0.23 -9.96 2.52 0.21 -10.71 3.01 1.11 -10.62 3.09 1.28 -11.74 2.79 0.51 -14.98 3.71 0.19 -13.55 3.40 0.02 -11.96 3.46 0.17 -10.90 3.71 0.62 -10.50 3.89 1.11 -10.85 3.82 1.34 -11.74 3.58 1.28 -12.73 3.50 1.13 -13.46 3.63 0.30 -14.52 4.11 -0.04 -12.90 4.02 -0.14 -11.47 4.24 0.12 -10.75 4.60 0.62 -10.48 4.78 1.13 -10.74 4.74 1.44 -11.39 4.49 1.50 -12.17 4.36 1.40 -12.88 4.36 1.25 -13.26 4.62 -0.20 -13.90 6.24 0.23 -14.96 4.80 -0.06 -13.49 4.66 -0.32 -11.84 4.91 -0.31 -10.68 5.28 0.05 -10.13 5.61 0.63 -9.91 5.74 1.21 -10.13 5.70 1.63 -10.68 5.49 1.79 -11.28 5.35 1.81 -11.79 5.32 1.74 -12.12 5.44 1.72 -12.10 5.79 1.98 -11.34 6.73 -0.60 -12.90 7.04 -0.27 -13.59 5.49 -0.59 -12.08 5.59 -0.70 -10.62 6.04 -0.47 -9.56 6.36 -0.01 -8.99 6.52 0.61 -8.77 6.57 1.23 -8.98 6.52 1.72 -9.55 6.44 2.03 -10.08 6.43 2.21 -10.44 6.47 2.31 -10.64 6.71 2.44 -10.56 7.18 2.65 -10.21 8.13 -1.11 -11.95 8.12 -0.80 -12.62 7.11 -0.91 -12.09 6.73 -1.08 -10.81 6.86 -0.97 -9.42 7.03 -0.30 -8.12 7.21 0.27 -7.26 7.36 0.62 -6.97 7.43 1.02 -7.25 7.44 1.62 -8.09 7.31 2.17 -8.79 7.32 2.46 -9.26 7.60 2.67 -9.55 8.10 2.79 -9.66 8.83 2.71 -9.64 9.93 2.54 -9.30 11.51 -2.82 -8.46 11.77 -1.50 -11.50 9.15 -1.33 -11.71 8.35 -1.42 -11.09 7.98 -1.38 -9.76 7.78 -0.67 -7.92 7.34 0.13 -6.49 6.55 0.35 -5.95 6.22 0.44 -5.74 6.24 0.58 -5.81 6.49 0.90 -6.32 7.05 1.56 -7.16 7.65 2.14 -7.88 8.33 2.53 -8.38 9.16 2.68 -8.79 10.13 2.68 -8.98 11.22 2.54 -8.79 12.38 2.33 -8.00 13.55 -2.71 -8.64 11.96 -1.94 -11.25 9.93 -1.78 -11.14 9.21 -1.80 -10.20 8.68 -1.20 -8.49 7.55 -0.20 -6.99 5.61 0.11 -6.28 4.63 0.22 -5.83 4.50 0.21 -5.55 4.61 0.19 -5.49 4.86 0.25 -5.82 5.36 0.55 -6.34 5.95 1.01 -6.87 6.74 1.65 -7.35 7.95 2.10 -7.78 9.51 2.36 -8.13 10.98 2.35 -8.18 12.14 2.07 -7.73 12.95 1.63 -6.83 12.88 -2.50 -8.78 11.68 -2.71 -10.37 11.49 -2.48 -10.88 10.53 -2.26 -10.45 9.73 -1.73 -9.31 8.40 -0.59 -7.98 5.66 -0.21 -7.18 3.57 -0.01 -6.52 2.91 0.11 -5.90 3.12 0.13 -5.44 3.43 0.08 -5.33 3.58 0.01 -5.72 3.87 0.06 -6.22 4.33 0.27 -6.73 4.83 0.64 -7.23 5.47 1.12 -7.63 6.70 1.56 -7.87 8.64 1.77 -8.01 10.42 1.66 -7.84 11.48 1.33 -7.39 11.53 1.46 -7.74 8.60 -2.20 -9.05 10.80 -2.64 -10.19 11.43 -2.64 -10.46 10.64 -2.16 -9.93 9.34 -1.05 -9.00 6.59 -0.60 -8.24 3.52 -0.42 -7.49 1.77 -0.08 -6.51 1.97 0.13 -5.49 2.93 0.19 -4.79 3.46 0.18 -4.68 3.49 0.12 -5.34 3.16 0.17 -6.14 2.95 0.30 -6.80 3.07 0.58 -7.37 3.41 0.95 -7.88 3.97 1.13 -8.31 5.06 1.15 -8.50 7.03 1.22 -8.47 8.88 1.14 -8.40 9.10 1.76 -9.55 5.29 -1.89 -9.76 9.17 -2.26 -10.16 10.41 -2.18 -10.30 9.64 -1.35 -9.87 7.44 -0.90 -9.28 4.14 -0.93 -8.50 1.62 -0.55 -7.46 0.95 -0.07 -6.17 2.02 0.19 -4.96 3.35 0.25 -4.20 3.95 0.26 -4.05 4.07 0.26 -4.60 3.66 0.45 -5.55 2.73 0.74 -6.44 2.04 1.09 -7.22 1.90 1.58 -7.85 2.06 2.04 -8.47 2.50 2.12 -9.66 4.01 2.07 -10.12 4.20 2.72 -10.73 2.56 -1.35 -11.25 5.54 -1.61 -10.76 8.03 -1.32 -10.68 6.92 -1.17 -10.23 4.23 -1.44 -9.38 1.89 -1.14 -8.39 0.68 -0.54 -7.20 0.75 -0.09 -5.81 2.25 0.17 -4.64 3.70 0.32 -3.85 4.43 0.35 -3.66 4.58 0.32 -4.09 4.31 0.49 -4.88 3.52 0.97 -5.77 2.34 1.63 -6.70 1.39 2.22 -7.49 1.06 2.81 -8.20 1.08 3.40 -10.33 1.65 3.46 -9.98 1.70 -2.39 -10.74 2.16 -1.80 -12.79 2.28 -1.74 -11.79 3.48 -1.94 -10.98 3.03 -2.13 -9.92 1.74 -1.72 -9.01 0.81 -1.01 -8.01 0.29 -0.48 -6.76 0.73 -0.05 -5.48 2.58 0.24 -4.39 4.08 0.39 -3.58 4.71 0.38 -3.33 4.83 0.31 -3.66 4.68 0.43 -4.36 4.14 0.95 -5.19 3.03 1.81 -6.13 1.68 2.57 -6.97 0.96 3.23 -7.71 0.64 3.62 -8.98 1.25 -4.61 -6.73 0.59 -4.34 -8.56 1.65 -3.18 -11.02 2.50 -3.06 -11.17 2.22 -2.98 -9.96 1.78 -2.22 -9.18 1.14 -1.38 -8.42 0.52 -0.75 -7.41 0.24 -0.28 -6.26 1.11 0.16 -5.17 3.15 0.38 -4.14 4.35 0.45 -3.32 4.77 0.34 -2.99 4.86 0.17 -3.22 4.82 0.21 -3.88 4.50 0.72 -4.71 3.61 1.81 -5.58 2.12 2.66 -6.36 0.96 3.20 -7.02 0.44 3.60 -8.02 0.73 -4.53 -6.78 0.71 -4.42 -8.18 2.29 -4.20 -9.19 2.97 -3.65 -9.34 2.70 -2.60 -8.82 1.96 -1.59 -8.33 1.16 -0.86 -7.61 0.56 -0.34 -6.69 0.63 0.13 -5.73 2.07 0.50 -4.77 3.71 0.56 -3.81 4.42 0.51 -3.01 4.60 0.29 -2.61 4.64 0.04 -2.73 4.65 -0.03 -3.33 4.51 0.35 -4.18 3.94 1.42 -5.02 2.65 2.57 -5.74 1.09 3.15 -6.21 0.12 3.08 -6.87 -1.08 -3.85 -7.93 2.23 -2.85 -8.00 2.16 -0.79 -7.24 0.73 0.30 -5.85 1.47 0.70 -5.08 3.00 0.81 -4.19 3.91 0.72 -3.33 4.25 0.55 -2.63 4.27 0.26 -2.21 4.26 -0.16 -2.74 4.20 0.08 -3.53 3.87 0.88 -4.33 2.98 2.05 -5.07 1.42 2.73 -5.41 0.26 3.01 -5.68 -1.26 2.89 -5.81 -1.76 0.03 -6.14 0.26 0.45 -5.60 0.92 0.83 -4.98 2.21 1.06 -4.22 3.30 0.98 -3.47 3.78 0.80 -2.79 3.85 0.60 -3.44 2.74 1.51 -4.11 1.50 2.07 -4.41 0.37 2.26 -4.39 -1.13 2.23 -4.45 -1.62 0.33 -5.11 0.29 1.02 -4.04 2.32 1.12 -3.39 3.04 0.98 -2.83 3.28 0.80 -2.28 3.17 1.67 -3.30 0.02 1.72 -3.33 -0.80 1.55 -3.34 -1.39 0.77 -3.67 1.17 1.05 -3.11 1.98 1.61 6.26 -3.45 1.85 6.95 -3.69 1.34 6.88 -3.95 1.67 6.45 -3.76 1.23 6.65 -3.74 0.91 6.70 -3.58 1.01 5.92 -3.57 -0.68 -19.31 10.43 -0.91 -20.16 11.18 -1.17 -20.56 11.70 -1.82 -20.71 12.05 -2.13 -20.66 12.11 -2.24 -20.22 11.65 -0.52 -18.27 9.48 -0.53 -20.10 10.34 -0.72 -20.89 10.98 -0.95 -21.21 11.36 -1.24 -21.24 11.46 -1.58 -21.30 11.58 -1.94 -21.31 11.71 -2.16 -20.94 11.42 -0.43 -19.07 9.45 -0.40 -20.80 10.22 -0.55 -21.52 10.75 -0.69 -21.70 10.97 -0.89 -21.58 10.94 -1.23 -21.70 11.08 -1.66 -21.75 11.20 -1.98 -21.55 11.12 -1.80 -20.57 10.53 -0.39 -19.72 9.36 -0.34 -21.37 10.05 -0.42 -22.00 10.47 -0.44 -21.94 10.52 -0.49 -21.50 10.35 -0.79 -21.66 10.44 -1.27 -21.95 10.66 -1.68 -21.95 10.74 -1.65 -21.10 10.34 -0.40 -20.25 9.23 -0.33 -21.82 9.84 -0.36 -22.33 10.14 -0.28 -21.89 10.04 -0.19 -20.79 9.64 -0.34 -20.94 9.70 -0.81 -21.81 10.12 -1.29 -22.12 10.34 -1.36 -21.40 10.07 -0.44 -20.68 9.05 -0.39 -22.18 9.62 -0.39 -22.52 9.81 -0.27 -21.61 9.57 -0.07 -19.58 8.83 -0.05 -19.69 8.89 -0.39 -21.36 9.55 -0.87 -22.08 9.91 -1.02 -21.55 9.75 -0.44 -19.02 8.02 -0.47 -21.06 8.86 -0.47 -22.46 9.38 -0.49 -22.60 9.48 -0.37 -21.28 9.10 -0.05 -18.42 7.75 -0.00 -18.36 7.73 -0.09 -20.72 8.93 -0.45 -21.87 9.43 -0.66 -21.59 9.38 -0.53 -20.32 8.90 0.41 -18.47 7.93 -0.44 -21.39 8.65 -0.54 -22.65 9.13 -0.60 -22.59 9.15 -0.40 -21.05 8.59 -0.20 -17.47 6.36 -0.14 -17.07 6.06 0.18 -20.20 8.25 -0.11 -21.61 8.95 -0.36 -21.58 8.99 -0.15 -20.45 8.54 -0.53 -22.72 8.81 -0.58 -22.50 8.75 -0.36 -20.83 7.96 -0.31 -17.03 4.98 -0.01 -16.16 4.33 0.16 -19.88 7.47 0.14 -21.38 8.41 -0.09 -21.51 8.53 0.29 -20.55 8.04 -0.38 -22.22 8.17 -0.28 -20.35 7.01 -0.48 -16.50 3.82 -0.03 -15.05 3.28 -0.05 -19.46 6.33 0.16 -21.19 7.71 0.26 -21.37 7.88 -0.24 -19.43 5.27 -0.75 -15.01 2.95 -0.07 -13.69 2.73 0.03 -18.73 4.55 0.43 -12.39 -0.19 1.29 -12.48 -0.15 -0.42 -18.11 2.81 0.06 -16.66 2.05 0.31 -14.48 0.98 0.32 -12.52 0.97 0.76 -11.70 1.24 1.22 -12.50 0.94 1.35 -14.20 0.91 1.32 -15.74 1.70 1.20 -16.66 2.40 -1.09 -13.42 5.52 -0.06 -17.62 4.17 -0.00 -18.18 3.53 0.21 -17.68 2.96 0.37 -15.98 2.19 0.17 -13.92 1.87 0.19 -12.27 2.16 0.66 -11.61 2.40 1.13 -12.15 2.23 1.27 -13.54 1.88 1.17 -14.97 1.93 1.01 -16.01 2.38 0.78 -16.38 2.83 0.55 -16.29 3.27 -0.67 -14.16 5.86 -0.07 -16.67 5.17 0.33 -17.73 4.44 0.52 -17.87 3.78 0.55 -16.94 3.17 0.20 -15.01 2.77 -0.04 -13.02 2.91 0.10 -11.75 3.26 0.61 -11.34 3.54 1.15 -11.67 3.43 1.41 -12.61 3.10 1.30 -13.83 2.90 1.04 -14.96 2.92 0.77 -15.68 3.17 0.52 -16.06 3.54 0.39 -15.99 4.28 0.63 -15.37 5.54 -0.45 -14.28 6.20 0.24 -16.72 5.36 0.51 -17.60 4.58 0.60 -17.27 3.98 0.30 -15.88 3.55 -0.17 -13.69 3.56 -0.26 -11.93 4.07 0.03 -11.06 4.50 0.63 -10.77 4.77 1.26 -10.99 4.65 1.61 -11.68 4.38 1.68 -12.56 4.13 1.51 -13.58 3.96 1.19 -14.55 4.00 0.85 -15.34 4.23 0.67 -15.61 4.84 0.92 -15.05 5.86 2.00 -12.00 7.74 -1.94 -10.58 8.61 -0.51 -13.75 6.77 0.26 -16.27 5.58 0.48 -16.99 4.84 0.26 -16.28 4.31 -0.20 -14.35 4.26 -0.62 -12.14 4.78 -0.55 -10.57 5.47 -0.09 -9.68 5.81 0.60 -9.32 5.91 1.32 -9.57 5.83 1.85 -10.28 5.66 2.09 -11.03 5.51 2.14 -11.80 5.33 1.95 -12.67 5.21 1.66 -13.62 5.20 1.43 -14.16 5.64 1.65 -13.44 6.71 2.07 -11.43 9.01 2.37 -5.73 14.12 -2.15 -10.53 9.69 -0.89 -12.89 7.69 -0.18 -14.98 6.30 -0.04 -15.62 5.41 -0.42 -14.57 5.13 -0.87 -12.58 5.62 -1.08 -10.57 6.25 -0.59 -8.85 6.73 0.14 -7.53 7.06 0.57 -7.02 7.17 1.03 -7.40 7.12 1.75 -8.42 6.86 2.33 -9.35 6.80 2.60 -10.13 6.87 2.67 -10.83 6.93 2.60 -11.49 7.00 2.44 -11.97 7.34 2.30 -11.89 8.39 1.90 -11.07 10.54 2.13 -6.42 14.17 -2.52 -10.36 10.75 -1.23 -12.29 8.84 -0.81 -13.55 7.56 -0.79 -13.80 6.83 -1.14 -12.79 6.73 -1.37 -11.13 7.13 -1.03 -8.89 7.24 0.01 -6.49 6.64 0.34 -5.53 6.07 0.42 -5.25 6.00 0.52 -5.34 6.25 0.82 -5.98 6.81 1.56 -7.09 7.47 2.31 -8.34 8.07 2.64 -9.47 8.56 2.67 -10.38 8.95 2.52 -11.00 9.40 2.22 -11.22 10.26 1.91 -10.93 11.74 2.00 -9.76 13.50 1.87 -6.90 14.06 -2.79 -10.11 11.60 -1.82 -11.98 9.84 -1.18 -12.79 8.78 -1.26 -12.70 8.22 -1.53 -11.68 8.05 -1.56 -9.69 7.72 -0.39 -7.00 6.15 0.18 -5.70 4.86 0.27 -5.08 4.57 0.21 -4.77 4.64 0.13 -4.73 4.84 0.12 -5.09 5.21 0.36 -5.73 5.72 0.95 -6.56 6.70 1.85 -7.65 8.38 2.49 -9.05 9.92 2.58 -10.12 10.76 2.33 -10.65 11.52 2.09 -10.55 12.61 2.01 -9.53 13.82 1.59 -7.21 13.73 -2.79 -9.78 12.03 -2.42 -11.70 10.70 -1.85 -12.29 9.62 -1.81 -11.93 9.06 -1.95 -10.55 8.53 -1.05 -8.26 6.70 -0.10 -6.64 4.42 0.17 -5.56 3.76 0.27 -4.75 3.89 0.20 -4.33 4.07 0.06 -4.27 4.18 -0.11 -4.67 4.30 -0.18 -5.28 4.51 -0.02 -6.04 4.90 0.55 -6.88 5.89 1.48 -7.78 8.24 2.24 -8.93 10.58 2.39 -9.73 11.95 2.16 -9.85 12.94 1.85 -9.13 13.61 1.27 -7.49 13.07 -2.52 -9.52 11.77 -2.75 -11.36 11.28 -2.57 -11.72 10.28 -2.49 -11.05 9.51 -1.75 -9.57 7.95 -0.50 -7.95 4.88 -0.19 -6.70 3.26 0.20 -5.33 3.45 0.37 -4.32 3.95 0.31 -3.84 4.21 0.18 -3.81 4.25 -0.02 -4.26 4.10 -0.15 -5.01 3.85 -0.15 -5.86 3.79 0.05 -6.73 4.11 0.48 -7.59 5.32 1.25 -8.34 8.24 1.80 -9.01 10.73 1.82 -9.26 12.14 1.48 -8.86 12.72 0.93 -7.97 12.05 -1.73 -10.31 3.45 -2.16 -9.60 10.82 -2.69 -10.96 11.25 -2.75 -11.12 10.37 -2.21 -10.41 8.92 -0.94 -9.23 6.05 -0.64 -8.14 3.33 -0.25 -6.65 2.83 0.27 -5.09 3.63 0.41 -4.08 4.26 0.39 -3.56 4.61 0.29 -3.52 4.68 0.12 -3.93 4.48 -0.03 -4.64 4.01 0.03 -5.57 3.42 0.37 -6.63 3.05 0.75 -7.65 3.34 0.75 -8.52 4.95 0.94 -8.99 8.02 1.19 -9.21 10.23 1.00 -9.05 11.07 0.64 -8.67 10.50 -1.35 -12.16 1.78 -1.83 -10.17 9.18 -2.25 -10.77 10.20 -2.16 -10.82 9.22 -1.22 -10.25 6.92 -1.00 -9.45 3.80 -1.02 -8.13 2.34 -0.17 -6.45 2.95 0.27 -5.01 3.85 0.38 -4.03 4.51 0.42 -3.43 4.87 0.36 -3.35 4.94 0.21 -3.73 4.80 0.07 -4.39 4.43 0.10 -5.26 3.75 0.58 -6.32 2.94 1.49 -7.46 2.39 2.02 -8.60 2.70 1.42 -9.50 4.11 0.74 -9.82 6.66 0.64 -9.81 8.28 0.75 -10.09 7.39 2.57 -11.37 3.32 5.50 -8.46 3.68 -1.35 -13.64 0.85 -1.63 -11.53 6.39 -1.65 -11.26 7.98 -1.31 -11.12 6.52 -1.39 -10.55 3.79 -1.86 -9.31 2.08 -0.98 -7.78 2.18 -0.03 -6.26 3.21 0.28 -4.99 4.05 0.38 -3.99 4.68 0.44 -3.31 4.93 0.37 -3.14 4.99 0.21 -3.48 4.93 0.09 -4.17 4.67 0.12 -5.03 4.14 0.58 -6.02 3.30 1.79 -7.06 2.41 3.08 -8.28 1.94 3.58 -9.50 2.03 3.18 -10.57 2.56 2.60 -11.27 3.18 2.69 -11.74 2.93 3.52 -11.06 2.90 5.28 -8.66 3.41 -4.32 -8.75 0.14 -2.01 -12.74 1.36 -1.96 -13.30 2.11 -1.92 -12.41 3.39 -2.36 -11.47 2.68 -2.78 -10.05 1.87 -1.87 -8.67 1.73 -0.50 -7.33 2.61 0.18 -6.05 3.53 0.40 -4.89 4.29 0.45 -3.85 4.73 0.47 -3.11 4.86 0.34 -2.87 4.89 0.14 -3.12 4.88 0.01 -3.81 4.76 0.05 -4.75 4.38 0.43 -5.70 3.68 1.60 -6.61 2.75 3.19 -7.69 2.06 4.00 -8.80 1.77 4.11 -9.85 1.70 3.98 -10.64 1.96 3.95 -10.85 2.36 4.31 -10.09 2.92 5.06 -8.39 3.41 -4.59 -8.53 -0.13 -4.00 -11.18 1.18 -2.96 -12.88 1.69 -3.45 -12.25 1.89 -3.59 -10.39 1.98 -2.53 -9.10 1.83 -1.00 -7.99 2.28 0.10 -6.83 3.15 0.50 -5.69 3.91 0.58 -4.59 4.46 0.58 -3.53 4.66 0.51 -2.80 4.66 0.29 -2.50 4.65 0.05 -2.68 4.64 -0.09 -3.31 4.58 -0.07 -4.28 4.40 0.23 -5.27 3.91 1.25 -6.10 3.04 2.90 -6.98 2.09 3.84 -7.91 1.68 4.13 -8.76 1.66 4.16 -9.40 1.95 4.23 -9.59 2.50 4.31 -9.17 3.05 7.25 -3.86 0.69 -5.01 -4.19 0.00 -4.56 -8.78 0.85 -4.49 -10.27 1.71 -4.39 -10.91 2.47 -4.13 -10.18 2.62 -2.97 -9.11 2.17 -1.36 -8.17 2.12 0.00 -7.19 2.77 0.67 -6.15 3.59 0.82 -5.09 4.20 0.77 -4.00 4.46 0.68 -3.02 4.41 0.51 -2.38 4.31 -0.22 -2.73 4.21 -0.19 -3.63 4.12 0.05 -4.58 3.86 0.85 -5.40 3.15 2.43 -6.15 1.95 3.50 -6.84 1.02 3.82 -7.49 0.63 3.93 -8.09 0.73 3.95 -8.37 1.20 4.01 -8.13 1.33 7.48 -4.66 0.83 -4.80 -4.01 -0.42 -4.75 -5.33 -1.33 -3.85 -6.95 -2.23 -4.24 -9.12 2.12 -3.26 -8.67 1.90 -1.77 -7.94 1.64 -0.20 -7.16 2.09 0.75 -6.30 3.10 1.06 -5.25 3.81 1.03 -4.18 4.14 0.89 -3.22 4.17 0.73 -2.43 3.97 -0.27 -2.85 3.63 -0.03 -3.67 3.45 0.63 -4.43 2.93 1.84 -5.12 1.86 2.96 -5.71 0.78 3.65 -6.21 -0.11 3.87 -6.67 -0.82 3.88 -7.03 -1.16 3.91 -7.09 -1.43 7.46 -5.42 0.87 -4.35 -3.48 -0.92 -4.52 -4.89 -1.49 -3.14 -5.98 -2.27 -3.44 -7.47 -1.65 -3.39 -7.95 0.37 -1.92 -7.50 0.83 -0.40 -6.87 1.23 0.58 -6.14 2.24 1.12 -5.21 3.20 1.26 -4.14 3.65 1.14 -3.23 3.75 0.94 -2.50 3.64 0.01 -2.69 2.85 0.57 -3.33 2.41 1.50 -3.92 1.50 2.32 -4.42 0.51 3.00 -4.88 -0.28 3.41 -5.33 -0.98 3.46 -5.71 -1.61 3.49 -5.91 -1.94 -3.23 -5.19 -2.34 -1.87 -6.64 -0.09 -0.71 -6.28 0.42 0.20 -5.76 1.21 0.93 -4.94 2.25 1.33 -3.98 3.01 1.33 -3.10 3.26 1.18 -2.44 3.26 0.96 -1.93 3.12 1.78 -3.27 0.03 2.11 -3.75 -0.66 2.33 -4.17 -1.15 2.50 -4.43 -1.42 -1.58 -5.48 -0.32 -0.52 -5.21 0.27 0.44 -4.58 1.07 1.17 -3.71 2.02 1.44 -2.90 2.71 1.39 -2.27 2.96 1.24 -1.80 2.94 1.55 -3.19 -1.47 1.62 -3.44 -1.75 -0.48 -4.39 -0.66 0.17 -4.11 -0.06 0.90 -3.40 0.70 1.38 -2.68 1.68 1.99 6.06 -3.71 1.67 6.24 -3.89 1.18 6.99 -4.37 0.88 7.20 -4.27 2.33 7.00 -3.69 1.90 7.00 -4.03 1.41 6.95 -4.15 1.50 6.52 -4.17 1.10 6.75 -4.26 0.75 6.83 -4.17 1.84 6.00 -3.90 1.36 6.00 -4.07 0.88 6.00 -3.98 0.54 6.00 -3.96 -2.22 -12.00 14.56 -3.04 -12.38 15.58 -2.25 -12.88 14.40 -3.06 -13.24 15.40 -3.05 -14.09 15.23 -2.70 -1.73 2.03 -2.82 -2.24 2.15 -1.84 -15.11 13.00 -2.16 -15.53 14.07 -2.53 -15.74 14.66 -1.06 -14.75 10.40 -1.47 -15.46 11.56 -1.79 -15.98 12.91 -2.12 -16.38 13.92 -2.50 -16.54 14.42 -2.98 -16.49 14.51 -2.85 -3.60 2.44 -1.34 -8.15 6.27 -0.78 -13.92 9.08 -1.09 -15.45 10.22 -1.46 -16.27 11.42 -1.75 -16.83 12.75 -2.07 -17.19 13.71 -2.46 -17.31 14.15 -2.95 -17.23 14.16 -3.47 -16.98 13.70 -3.80 -16.52 12.69 -1.60 -8.51 5.99 -0.83 -14.42 8.91 -1.08 -16.17 10.08 -1.42 -17.08 11.27 -1.71 -17.64 12.53 -2.03 -17.97 13.40 -2.43 -18.06 13.78 -2.90 -17.96 13.75 -3.35 -17.70 13.21 -3.47 -17.07 11.97 1.55 -8.40 6.26 3.16 -3.62 2.75 -1.75 -9.09 5.81 -0.83 -15.05 8.82 -1.02 -16.94 9.98 -1.35 -17.88 11.11 -1.65 -18.43 12.26 -1.99 -18.72 13.00 -2.40 -18.78 13.34 -2.84 -18.69 13.29 -3.19 -18.42 12.72 -3.10 -17.63 11.37 0.24 -11.58 7.81 1.72 -9.06 6.07 -2.80 -6.00 2.74 -1.77 -9.85 5.76 -1.03 -12.74 7.50 -0.78 -15.84 8.78 -0.93 -17.78 9.91 -1.25 -18.70 10.95 -1.56 -19.21 11.94 -1.92 -19.46 12.56 -2.34 -19.51 12.84 -2.75 -19.43 12.81 -3.01 -19.17 12.28 -2.79 -18.25 10.93 -1.40 -15.67 9.16 0.44 -12.22 7.68 1.78 -9.86 5.97 -2.97 -3.47 0.48 -3.04 -5.34 1.52 -2.78 -6.82 2.81 -1.70 -10.74 5.78 -0.94 -13.68 7.52 -0.68 -16.74 8.77 -0.81 -18.63 9.83 -1.12 -19.51 10.77 -1.44 -19.98 11.59 -1.82 -20.19 12.08 -2.24 -20.24 12.31 -2.64 -20.18 12.32 -2.86 -19.90 11.87 -2.60 -18.96 10.66 -1.30 -16.38 9.07 0.42 -13.10 7.65 1.70 -10.83 6.00 3.09 -1.62 1.11 -2.72 -7.68 2.88 -1.56 -11.73 5.87 -0.80 -14.70 7.57 -0.56 -17.66 8.77 -0.68 -19.47 9.73 -0.97 -20.30 10.56 -1.29 -20.72 11.21 -1.66 -20.89 11.56 -2.08 -20.93 11.76 -2.49 -20.89 11.81 -2.72 -20.61 11.46 -2.51 -19.73 10.49 -1.39 -17.32 9.09 0.16 -14.19 7.75 -2.60 -8.59 3.00 -1.38 -12.76 5.99 -0.67 -15.70 7.62 -0.45 -18.53 8.74 -0.55 -20.25 9.61 -0.81 -21.02 10.31 -1.09 -21.38 10.80 -1.45 -21.48 11.01 -1.86 -21.54 11.18 -2.27 -21.55 11.30 -2.55 -21.28 11.06 -2.40 -20.46 10.30 -1.49 -18.27 9.10 -0.16 -15.34 7.87 -1.20 -13.75 6.10 -0.57 -16.60 7.62 -0.39 -19.27 8.66 -0.45 -20.91 9.44 -0.64 -21.64 10.02 -0.84 -21.89 10.34 -1.10 -21.86 10.39 -1.49 -21.97 10.55 -1.94 -22.09 10.76 -2.29 -21.86 10.63 -2.21 -21.07 10.04 -1.53 -19.10 9.07 -0.39 -16.40 7.94 -1.07 -14.66 6.15 -0.53 -17.36 7.56 -0.38 -19.87 8.55 -0.39 -21.47 9.23 -0.51 -22.11 9.69 -0.57 -22.14 9.83 -0.64 -21.82 9.71 -0.96 -22.04 9.87 -1.48 -22.29 10.10 -1.92 -22.28 10.16 -1.91 -21.52 9.73 -1.43 -19.72 8.95 -0.48 -17.27 7.93 -0.99 -15.47 6.14 -0.52 -18.03 7.46 -0.42 -20.38 8.39 -0.40 -21.91 9.01 -0.45 -22.44 9.34 -0.36 -22.08 9.29 -0.23 -21.08 8.94 -0.39 -21.28 9.03 -0.92 -22.12 9.45 -1.43 -22.44 9.67 -1.54 -21.76 9.39 -1.22 -20.16 8.75 -0.40 -17.94 7.82 -0.94 -16.22 6.08 -0.51 -18.65 7.34 -0.48 -20.84 8.22 -0.47 -22.29 8.78 -0.49 -22.65 8.99 -0.34 -21.80 8.78 -0.07 -19.71 8.07 -0.02 -19.92 8.15 -0.39 -21.62 8.81 -0.93 -22.38 9.19 -1.12 -21.86 9.02 -0.95 -20.47 8.49 -0.22 -18.49 7.65 -0.91 -16.90 5.97 -0.50 -19.23 7.21 -0.53 -21.27 8.03 -0.56 -22.62 8.54 -0.62 -22.80 8.66 -0.47 -21.46 8.31 -0.04 -18.37 6.93 0.08 -18.45 6.99 -0.03 -21.00 8.19 -0.45 -22.18 8.71 -0.72 -21.94 8.66 -0.67 -20.75 8.20 0.05 -18.95 7.40 1.01 -17.11 6.01 -0.54 -21.68 7.84 -0.65 -22.90 8.30 -0.75 -22.89 8.35 -0.56 -21.30 7.83 -0.21 -17.38 5.53 -0.09 -17.13 5.39 0.29 -20.50 7.55 -0.06 -22.01 8.24 -0.40 -22.04 8.29 -0.36 -20.99 7.90 -0.50 -22.06 7.63 -0.71 -23.10 8.02 -0.82 -22.94 8.01 -0.56 -21.24 7.32 -0.34 -17.05 4.23 0.02 -16.34 3.75 0.40 -20.30 6.90 0.22 -21.88 7.77 -0.12 -22.11 7.90 0.02 -21.19 7.54 -0.37 -22.35 7.38 -0.65 -23.21 7.71 -0.72 -22.90 7.59 -0.48 -21.06 6.61 -0.49 -16.80 3.22 0.06 -15.57 2.65 0.25 -20.16 6.11 0.39 -21.80 7.23 0.18 -22.10 7.44 0.42 -21.35 7.06 0.91 -20.06 6.02 -0.45 -23.16 7.27 -0.45 -22.63 6.95 -0.38 -20.54 5.50 -0.67 -16.09 2.43 0.04 -14.94 2.13 0.11 -19.87 4.91 0.35 -21.68 6.50 0.53 -22.05 6.78 0.64 -21.47 6.33 -0.16 -21.93 5.84 -0.36 -19.77 3.84 -0.87 -14.76 1.79 0.13 -14.38 1.79 0.23 -19.27 3.32 0.15 -21.26 5.24 0.90 -12.14 -2.33 1.45 -14.05 -0.98 -1.11 -20.28 2.49 -1.04 -19.36 1.74 -0.63 -17.28 0.68 0.42 -13.89 -1.37 0.93 -12.53 -1.61 1.43 -14.10 -1.01 1.57 -16.59 0.83 1.57 -18.34 1.81 1.56 -19.32 2.35 -1.12 -18.67 3.31 -1.03 -19.87 2.94 -0.98 -19.92 2.37 -0.69 -18.60 1.57 0.11 -16.17 0.45 0.40 -13.50 -0.54 0.85 -12.47 -0.22 1.33 -13.60 -0.45 1.47 -15.72 0.41 1.45 -17.53 1.51 1.41 -18.66 2.12 1.29 -18.89 2.46 1.12 -18.49 2.76 0.90 -17.24 3.21 1.05 -15.99 4.46 -1.61 -13.92 5.14 -0.92 -16.75 4.59 -0.57 -18.42 3.65 -0.60 -19.39 2.97 -0.43 -19.07 2.33 0.16 -17.24 1.58 0.22 -14.82 0.82 0.20 -12.80 1.14 0.71 -12.02 1.42 1.20 -12.70 1.20 1.32 -14.42 0.87 1.26 -16.14 1.23 1.14 -17.41 1.87 0.97 -17.96 2.34 0.74 -17.92 2.78 0.61 -17.35 3.40 0.70 -16.53 4.75 1.42 -14.58 5.97 2.65 -9.76 8.12 -2.37 -10.83 6.16 -1.19 -14.03 5.67 -0.48 -16.70 5.01 -0.05 -18.07 4.05 0.16 -1