# vtk DataFile Version 2.0
VTK from Matlab
ASCII
DATASET STRUCTURED_GRID
DIMENSIONS 8969 1 1
POINTS 8969 float
28.00 101.00 13.00 34.00 87.00 14.00 35.00 87.00 14.00 36.00 87.00 14.00 34.00 94.00 14.00 35.00 94.00 14.00 36.00 94.00 14.00 29.00 95.00 14.00 30.00 95.00 14.00 31.00 95.00 14.00 32.00 95.00 14.00 33.00 95.00 14.00 34.00 95.00 14.00 35.00 95.00 14.00 36.00 95.00 14.00 37.00 95.00 14.00 38.00 95.00 14.00 26.00 96.00 14.00 27.00 96.00 14.00 28.00 96.00 14.00 29.00 96.00 14.00 30.00 96.00 14.00 31.00 96.00 14.00 32.00 96.00 14.00 33.00 96.00 14.00 34.00 96.00 14.00 35.00 96.00 14.00 36.00 96.00 14.00 37.00 96.00 14.00 38.00 96.00 14.00 39.00 96.00 14.00 40.00 96.00 14.00 41.00 96.00 14.00 42.00 96.00 14.00 27.00 97.00 14.00 28.00 97.00 14.00 29.00 97.00 14.00 30.00 97.00 14.00 31.00 97.00 14.00 32.00 97.00 14.00 33.00 97.00 14.00 34.00 97.00 14.00 35.00 97.00 14.00 36.00 97.00 14.00 37.00 97.00 14.00 38.00 97.00 14.00 39.00 97.00 14.00 40.00 97.00 14.00 41.00 97.00 14.00 42.00 97.00 14.00 27.00 98.00 14.00 28.00 98.00 14.00 29.00 98.00 14.00 30.00 98.00 14.00 31.00 98.00 14.00 32.00 98.00 14.00 33.00 98.00 14.00 34.00 98.00 14.00 35.00 98.00 14.00 36.00 98.00 14.00 37.00 98.00 14.00 38.00 98.00 14.00 39.00 98.00 14.00 40.00 98.00 14.00 41.00 98.00 14.00 42.00 98.00 14.00 29.00 99.00 14.00 30.00 99.00 14.00 31.00 99.00 14.00 32.00 99.00 14.00 33.00 99.00 14.00 34.00 99.00 14.00 35.00 99.00 14.00 36.00 99.00 14.00 37.00 99.00 14.00 38.00 99.00 14.00 39.00 99.00 14.00 40.00 99.00 14.00 41.00 99.00 14.00 42.00 99.00 14.00 28.00 100.00 14.00 29.00 100.00 14.00 30.00 100.00 14.00 31.00 100.00 14.00 32.00 100.00 14.00 33.00 100.00 14.00 34.00 100.00 14.00 35.00 100.00 14.00 36.00 100.00 14.00 37.00 100.00 14.00 38.00 100.00 14.00 39.00 100.00 14.00 40.00 100.00 14.00 41.00 100.00 14.00 42.00 100.00 14.00 27.00 101.00 14.00 28.00 101.00 14.00 29.00 101.00 14.00 30.00 101.00 14.00 31.00 101.00 14.00 32.00 101.00 14.00 33.00 101.00 14.00 34.00 101.00 14.00 35.00 101.00 14.00 19.00 87.00 15.00 35.00 87.00 15.00 19.00 88.00 15.00 33.00 88.00 15.00 34.00 88.00 15.00 35.00 88.00 15.00 36.00 88.00 15.00 37.00 88.00 15.00 32.00 95.00 15.00 33.00 95.00 15.00 34.00 95.00 15.00 35.00 95.00 15.00 36.00 95.00 15.00 37.00 95.00 15.00 25.00 96.00 15.00 26.00 96.00 15.00 27.00 96.00 15.00 28.00 96.00 15.00 29.00 96.00 15.00 30.00 96.00 15.00 31.00 96.00 15.00 32.00 96.00 15.00 33.00 96.00 15.00 34.00 96.00 15.00 35.00 96.00 15.00 36.00 96.00 15.00 37.00 96.00 15.00 38.00 96.00 15.00 39.00 96.00 15.00 40.00 96.00 15.00 41.00 96.00 15.00 42.00 96.00 15.00 43.00 96.00 15.00 26.00 97.00 15.00 27.00 97.00 15.00 28.00 97.00 15.00 29.00 97.00 15.00 30.00 97.00 15.00 31.00 97.00 15.00 32.00 97.00 15.00 33.00 97.00 15.00 34.00 97.00 15.00 35.00 97.00 15.00 36.00 97.00 15.00 37.00 97.00 15.00 38.00 97.00 15.00 39.00 97.00 15.00 40.00 97.00 15.00 41.00 97.00 15.00 42.00 97.00 15.00 43.00 97.00 15.00 26.00 98.00 15.00 28.00 98.00 15.00 29.00 98.00 15.00 30.00 98.00 15.00 31.00 98.00 15.00 32.00 98.00 15.00 33.00 98.00 15.00 34.00 98.00 15.00 35.00 98.00 15.00 36.00 98.00 15.00 37.00 98.00 15.00 38.00 98.00 15.00 39.00 98.00 15.00 40.00 98.00 15.00 41.00 98.00 15.00 42.00 98.00 15.00 43.00 98.00 15.00 29.00 99.00 15.00 31.00 99.00 15.00 32.00 99.00 15.00 33.00 99.00 15.00 34.00 99.00 15.00 35.00 99.00 15.00 36.00 99.00 15.00 37.00 99.00 15.00 38.00 99.00 15.00 39.00 99.00 15.00 27.00 100.00 15.00 28.00 100.00 15.00 29.00 100.00 15.00 30.00 100.00 15.00 31.00 100.00 15.00 32.00 100.00 15.00 33.00 100.00 15.00 34.00 100.00 15.00 35.00 100.00 15.00 36.00 100.00 15.00 37.00 100.00 15.00 38.00 100.00 15.00 39.00 100.00 15.00 40.00 100.00 15.00 42.00 100.00 15.00 43.00 100.00 15.00 26.00 101.00 15.00 27.00 101.00 15.00 28.00 101.00 15.00 29.00 101.00 15.00 30.00 101.00 15.00 31.00 101.00 15.00 34.00 87.00 16.00 35.00 87.00 16.00 18.00 88.00 16.00 33.00 88.00 16.00 34.00 88.00 16.00 35.00 88.00 16.00 36.00 88.00 16.00 18.00 89.00 16.00 32.00 89.00 16.00 33.00 89.00 16.00 37.00 89.00 16.00 28.00 92.00 16.00 29.00 92.00 16.00 24.00 95.00 16.00 24.00 96.00 16.00 25.00 96.00 16.00 26.00 96.00 16.00 27.00 96.00 16.00 33.00 96.00 16.00 34.00 96.00 16.00 35.00 96.00 16.00 36.00 96.00 16.00 37.00 96.00 16.00 38.00 96.00 16.00 39.00 96.00 16.00 40.00 96.00 16.00 41.00 96.00 16.00 42.00 96.00 16.00 43.00 96.00 16.00 44.00 96.00 16.00 24.00 97.00 16.00 25.00 97.00 16.00 26.00 97.00 16.00 27.00 97.00 16.00 28.00 97.00 16.00 29.00 97.00 16.00 30.00 97.00 16.00 31.00 97.00 16.00 32.00 97.00 16.00 33.00 97.00 16.00 34.00 97.00 16.00 35.00 97.00 16.00 36.00 97.00 16.00 37.00 97.00 16.00 38.00 97.00 16.00 39.00 97.00 16.00 40.00 97.00 16.00 41.00 97.00 16.00 42.00 97.00 16.00 43.00 97.00 16.00 44.00 97.00 16.00 25.00 98.00 16.00 28.00 98.00 16.00 29.00 98.00 16.00 30.00 98.00 16.00 31.00 98.00 16.00 32.00 98.00 16.00 33.00 98.00 16.00 34.00 98.00 16.00 35.00 98.00 16.00 36.00 98.00 16.00 37.00 98.00 16.00 38.00 98.00 16.00 39.00 98.00 16.00 40.00 98.00 16.00 43.00 98.00 16.00 44.00 98.00 16.00 25.00 99.00 16.00 29.00 99.00 16.00 30.00 99.00 16.00 31.00 99.00 16.00 32.00 99.00 16.00 33.00 99.00 16.00 34.00 99.00 16.00 35.00 99.00 16.00 36.00 99.00 16.00 37.00 99.00 16.00 38.00 99.00 16.00 39.00 99.00 16.00 43.00 99.00 16.00 26.00 100.00 16.00 29.00 100.00 16.00 30.00 100.00 16.00 31.00 100.00 16.00 32.00 100.00 16.00 33.00 100.00 16.00 34.00 100.00 16.00 35.00 100.00 16.00 36.00 100.00 16.00 37.00 100.00 16.00 38.00 100.00 16.00 39.00 100.00 16.00 40.00 100.00 16.00 43.00 100.00 16.00 26.00 101.00 16.00 27.00 101.00 16.00 28.00 101.00 16.00 29.00 101.00 16.00 24.00 44.00 17.00 24.00 45.00 17.00 24.00 46.00 17.00 24.00 47.00 17.00 23.00 48.00 17.00 44.00 48.00 17.00 45.00 48.00 17.00 23.00 49.00 17.00 23.00 50.00 17.00 33.00 84.00 17.00 34.00 84.00 17.00 33.00 85.00 17.00 34.00 85.00 17.00 35.00 85.00 17.00 33.00 86.00 17.00 34.00 86.00 17.00 35.00 86.00 17.00 32.00 87.00 17.00 33.00 87.00 17.00 34.00 87.00 17.00 35.00 87.00 17.00 36.00 87.00 17.00 32.00 88.00 17.00 33.00 88.00 17.00 34.00 88.00 17.00 35.00 88.00 17.00 36.00 88.00 17.00 31.00 89.00 17.00 32.00 89.00 17.00 33.00 89.00 17.00 37.00 89.00 17.00 30.00 90.00 17.00 31.00 90.00 17.00 29.00 91.00 17.00 30.00 91.00 17.00 28.00 92.00 17.00 29.00 92.00 17.00 26.00 93.00 17.00 27.00 93.00 17.00 28.00 93.00 17.00 23.00 94.00 17.00 24.00 94.00 17.00 24.00 95.00 17.00 23.00 96.00 17.00 24.00 96.00 17.00 26.00 96.00 17.00 42.00 96.00 17.00 43.00 96.00 17.00 44.00 96.00 17.00 45.00 96.00 17.00 24.00 97.00 17.00 27.00 97.00 17.00 28.00 97.00 17.00 37.00 97.00 17.00 38.00 97.00 17.00 39.00 97.00 17.00 40.00 97.00 17.00 41.00 97.00 17.00 42.00 97.00 17.00 43.00 97.00 17.00 44.00 97.00 17.00 24.00 98.00 17.00 25.00 98.00 17.00 28.00 98.00 17.00 29.00 98.00 17.00 30.00 98.00 17.00 31.00 98.00 17.00 33.00 98.00 17.00 34.00 98.00 17.00 35.00 98.00 17.00 36.00 98.00 17.00 37.00 98.00 17.00 38.00 98.00 17.00 39.00 98.00 17.00 40.00 98.00 17.00 44.00 98.00 17.00 25.00 99.00 17.00 29.00 99.00 17.00 30.00 99.00 17.00 31.00 99.00 17.00 32.00 99.00 17.00 33.00 99.00 17.00 34.00 99.00 17.00 35.00 99.00 17.00 36.00 99.00 17.00 37.00 99.00 17.00 38.00 99.00 17.00 39.00 99.00 17.00 44.00 99.00 17.00 25.00 100.00 17.00 26.00 100.00 17.00 29.00 100.00 17.00 30.00 100.00 17.00 31.00 100.00 17.00 32.00 100.00 17.00 33.00 100.00 17.00 34.00 100.00 17.00 35.00 100.00 17.00 36.00 100.00 17.00 37.00 100.00 17.00 38.00 100.00 17.00 39.00 100.00 17.00 40.00 100.00 17.00 43.00 100.00 17.00 44.00 100.00 17.00 25.00 101.00 17.00 26.00 101.00 17.00 27.00 101.00 17.00 28.00 101.00 17.00 42.00 39.00 18.00 42.00 40.00 18.00 42.00 41.00 18.00 43.00 41.00 18.00 42.00 42.00 18.00 43.00 42.00 18.00 44.00 42.00 18.00 42.00 43.00 18.00 43.00 43.00 18.00 44.00 43.00 18.00 43.00 44.00 18.00 44.00 44.00 18.00 45.00 44.00 18.00 43.00 45.00 18.00 44.00 45.00 18.00 45.00 45.00 18.00 24.00 46.00 18.00 43.00 46.00 18.00 44.00 46.00 18.00 45.00 46.00 18.00 24.00 47.00 18.00 44.00 47.00 18.00 45.00 47.00 18.00 24.00 48.00 18.00 44.00 48.00 18.00 45.00 48.00 18.00 23.00 49.00 18.00 45.00 49.00 18.00 45.00 50.00 18.00 33.00 80.00 18.00 34.00 80.00 18.00 32.00 81.00 18.00 33.00 81.00 18.00 34.00 81.00 18.00 35.00 81.00 18.00 32.00 82.00 18.00 33.00 82.00 18.00 34.00 82.00 18.00 35.00 82.00 18.00 36.00 82.00 18.00 31.00 83.00 18.00 32.00 83.00 18.00 33.00 83.00 18.00 34.00 83.00 18.00 35.00 83.00 18.00 36.00 83.00 18.00 31.00 84.00 18.00 32.00 84.00 18.00 33.00 84.00 18.00 34.00 84.00 18.00 35.00 84.00 18.00 36.00 84.00 18.00 31.00 85.00 18.00 32.00 85.00 18.00 33.00 85.00 18.00 34.00 85.00 18.00 35.00 85.00 18.00 36.00 85.00 18.00 31.00 86.00 18.00 32.00 86.00 18.00 33.00 86.00 18.00 34.00 86.00 18.00 35.00 86.00 18.00 36.00 86.00 18.00 37.00 86.00 18.00 30.00 87.00 18.00 31.00 87.00 18.00 32.00 87.00 18.00 33.00 87.00 18.00 34.00 87.00 18.00 35.00 87.00 18.00 36.00 87.00 18.00 37.00 87.00 18.00 30.00 88.00 18.00 31.00 88.00 18.00 32.00 88.00 18.00 37.00 88.00 18.00 29.00 89.00 18.00 30.00 89.00 18.00 29.00 90.00 18.00 28.00 91.00 18.00 27.00 92.00 18.00 28.00 92.00 18.00 26.00 93.00 18.00 27.00 93.00 18.00 24.00 94.00 18.00 25.00 94.00 18.00 22.00 95.00 18.00 23.00 95.00 18.00 24.00 95.00 18.00 44.00 95.00 18.00 45.00 95.00 18.00 46.00 95.00 18.00 23.00 96.00 18.00 24.00 96.00 18.00 26.00 96.00 18.00 42.00 96.00 18.00 43.00 96.00 18.00 44.00 96.00 18.00 45.00 96.00 18.00 23.00 97.00 18.00 24.00 97.00 18.00 27.00 97.00 18.00 40.00 97.00 18.00 41.00 97.00 18.00 42.00 97.00 18.00 43.00 97.00 18.00 44.00 97.00 18.00 24.00 98.00 18.00 25.00 98.00 18.00 28.00 98.00 18.00 29.00 98.00 18.00 37.00 98.00 18.00 38.00 98.00 18.00 39.00 98.00 18.00 40.00 98.00 18.00 44.00 98.00 18.00 24.00 99.00 18.00 25.00 99.00 18.00 28.00 99.00 18.00 29.00 99.00 18.00 30.00 99.00 18.00 31.00 99.00 18.00 32.00 99.00 18.00 33.00 99.00 18.00 34.00 99.00 18.00 35.00 99.00 18.00 36.00 99.00 18.00 37.00 99.00 18.00 38.00 99.00 18.00 39.00 99.00 18.00 44.00 99.00 18.00 25.00 100.00 18.00 26.00 100.0
[...]
POINT_DATA 8969
VECTORS vector_field float
1.05 5.00 -3.12 0.49 -1.90 3.65 0.21 -1.81 3.63 0.13 -2.22 3.45 0.98 3.19 -1.42 1.05 3.25 -1.44 1.16 3.07 -1.35 2.04 1.63 -2.02 1.62 2.17 -1.94 1.09 2.61 -1.90 0.70 2.93 -2.02 0.51 3.20 -2.19 0.58 3.42 -2.38 0.85 3.47 -2.49 1.15 3.35 -2.49 1.34 3.18 -2.38 1.26 3.02 -2.16 2.06 1.83 -2.24 2.18 1.67 -2.43 1.92 1.91 -2.38 1.42 2.33 -2.33 0.89 2.62 -2.40 0.51 2.80 -2.51 0.26 2.93 -2.71 0.23 3.14 -2.92 0.44 3.36 -3.14 0.79 3.50 -3.25 1.29 3.44 -3.23 1.75 3.35 -3.10 1.89 3.26 -2.92 1.67 3.20 -2.72 1.32 3.28 -2.49 1.02 3.42 -2.23 0.96 3.38 -1.86 1.73 3.10 -2.41 1.33 3.51 -2.52 0.85 3.72 -2.63 0.47 3.64 -2.76 0.22 3.44 -2.94 0.13 3.28 -3.19 0.22 3.32 -3.43 0.41 3.50 -3.56 0.76 3.70 -3.56 1.39 3.69 -3.55 2.14 3.70 -3.45 2.49 3.81 -3.31 2.39 4.04 -3.14 2.06 4.47 -2.95 1.69 4.85 -2.72 1.42 4.82 -2.38 1.54 6.17 -2.91 1.09 6.31 -3.20 0.60 5.89 -3.26 0.26 5.38 -3.26 0.12 4.71 -3.25 0.15 4.16 -3.31 0.25 3.95 -3.42 0.40 4.02 -3.44 0.70 4.10 -3.44 1.34 4.06 -3.47 2.22 4.24 -3.46 2.62 4.80 -3.39 2.48 5.54 -3.31 2.10 6.15 -3.23 1.67 6.54 -3.09 1.38 6.45 -2.80 0.76 6.53 -3.70 0.42 6.13 -3.57 0.25 5.55 -3.30 0.26 5.02 -3.07 0.31 4.76 -2.99 0.42 4.68 -2.97 0.68 4.54 -3.07 1.24 4.41 -3.17 2.02 4.65 -3.23 2.39 5.30 -3.27 2.23 5.91 -3.28 1.83 6.32 -3.24 1.38 6.50 -3.14 1.08 6.50 -2.91 1.20 6.00 -3.62 0.83 6.00 -3.66 0.59 5.88 -3.43 0.52 5.54 -2.94 0.44 5.24 -2.45 0.39 5.08 -2.23 0.46 4.95 -2.22 0.68 4.81 -2.40 1.16 4.72 -2.57 1.73 4.85 -2.72 2.01 5.21 -2.89 1.90 5.54 -3.02 1.52 5.75 -3.07 1.08 5.83 -3.06 0.76 5.86 -2.91 1.66 5.00 -2.94 1.20 5.00 -3.33 0.85 5.00 -3.31 0.64 5.00 -2.96 0.59 5.00 -2.25 0.52 4.93 -1.67 0.47 4.82 -1.36 0.53 4.78 -1.28 0.71 4.75 -1.41 -4.14 -2.68 -0.27 -0.04 -2.22 4.25 -3.69 -2.19 -0.89 0.57 -2.21 3.78 0.30 -1.79 3.65 0.02 -1.71 3.59 -0.14 -2.10 3.60 -0.01 -2.78 3.41 0.72 3.05 -1.53 0.50 3.32 -1.85 0.55 3.50 -2.11 0.75 3.51 -2.23 0.97 3.36 -2.24 1.04 3.16 -2.14 1.67 2.25 -2.46 2.17 1.45 -2.69 2.24 1.29 -2.71 1.98 1.58 -2.43 1.51 2.14 -2.11 0.94 2.60 -2.19 0.46 2.91 -2.41 0.13 3.13 -2.65 0.06 3.34 -2.88 0.26 3.52 -3.13 0.62 3.57 -3.28 1.02 3.47 -3.31 1.32 3.32 -3.22 1.35 3.22 -3.04 1.11 3.16 -2.87 0.78 3.24 -2.75 0.51 3.37 -2.64 0.48 3.41 -2.50 0.80 3.20 -2.16 1.81 2.89 -2.84 1.80 2.87 -2.86 1.45 3.14 -2.82 0.96 3.39 -2.82 0.51 3.45 -2.89 0.14 3.42 -3.02 -0.06 3.37 -3.20 -0.02 3.43 -3.43 0.19 3.54 -3.63 0.56 3.62 -3.73 1.12 3.57 -3.76 1.67 3.51 -3.66 1.94 3.61 -3.55 1.92 3.95 -3.48 1.67 4.58 -3.43 1.33 5.28 -3.40 1.05 5.56 -3.25 1.12 4.81 -2.70 1.93 6.00 -3.14 1.15 6.24 -3.59 0.66 5.73 -3.54 0.27 5.14 -3.43 0.02 4.49 -3.29 -0.07 4.00 -3.28 -0.02 3.82 -3.39 0.16 3.86 -3.50 0.51 3.88 -3.59 1.12 3.83 -3.69 1.86 3.93 -3.71 2.27 4.48 -3.71 2.20 5.45 -3.75 1.87 6.33 -3.80 1.43 6.84 -3.77 1.11 6.92 -3.59 1.10 6.19 -3.04 0.86 6.57 -3.89 0.19 5.40 -3.21 0.06 4.77 -2.91 0.07 4.45 -2.79 0.22 4.38 -2.84 0.53 4.31 -3.00 1.07 4.24 -3.19 1.76 4.47 -3.35 2.14 5.22 -3.50 2.05 5.99 -3.69 1.79 6.00 -3.60 1.31 6.00 -3.88 0.91 6.00 -3.79 0.64 5.96 -3.37 0.48 5.56 -2.69 0.32 5.18 -2.17 0.26 4.94 -1.88 0.36 4.80 -1.84 0.58 4.74 -1.99 1.01 4.77 -2.25 1.53 4.95 -2.53 1.84 5.31 -2.90 1.79 5.66 -3.28 1.43 5.86 -3.48 0.67 5.96 -3.47 0.63 5.87 -3.02 2.08 5.00 -2.76 1.73 5.00 -3.30 1.27 5.00 -3.57 0.89 5.00 -3.42 0.63 5.00 -2.89 0.52 5.00 -2.12 0.23 -2.06 4.26 -0.06 -2.16 4.23 -4.11 -2.28 0.17 0.49 -1.91 3.83 0.18 -1.61 3.77 -0.10 -1.63 3.71 -0.27 -2.07 3.67 -3.72 -1.07 -0.39 0.73 -1.89 3.38 0.48 -1.46 3.21 -0.18 -2.00 2.97 1.56 -2.12 2.42 1.54 -1.67 2.70 2.04 -0.09 -2.54 0.97 2.80 -2.61 1.83 1.77 -2.94 2.16 1.18 -2.99 2.18 1.13 -2.51 0.11 3.28 -2.01 0.22 3.38 -2.35 0.49 3.37 -2.57 0.76 3.28 -2.65 0.85 3.15 -2.59 0.72 3.05 -2.43 0.47 2.99 -2.36 0.20 3.07 -2.49 0.02 3.22 -2.71 0.08 3.36 -2.93 0.43 3.29 -2.80 1.14 3.09 -2.39 0.49 3.61 -2.39 1.14 3.26 -3.15 1.77 2.79 -3.36 1.84 2.79 -3.17 1.60 2.82 -2.74 1.24 2.83 -2.34 0.79 2.89 -2.15 0.34 3.01 -2.24 -0.03 3.10 -2.43 -0.15 3.22 -2.70 0.03 3.33 -3.04 0.40 3.36 -3.26 0.82 3.32 -3.36 1.13 3.27 -3.32 1.21 3.34 -3.25 1.18 3.66 -3.34 1.11 4.34 -3.58 0.97 5.29 -3.87 0.76 5.96 -3.94 0.82 5.46 -3.53 1.43 4.29 -2.45 1.99 5.16 -3.15 1.23 5.91 -3.83 0.79 5.02 -3.52 0.45 4.13 -3.11 0.14 3.59 -2.79 -0.10 3.35 -2.64 -0.17 3.33 -2.70 -0.00 3.41 -2.90 0.35 3.44 -3.11 0.82 3.42 -3.31 1.31 3.49 -3.43 1.62 3.94 -3.55 1.74 4.97 -3.88 1.57 6.24 -4.22 0.81 6.74 -3.83 1.40 5.13 -2.47 2.37 6.44 -3.05 0.95 6.53 -3.90 0.55 5.73 -3.39 0.25 4.70 -2.78 0.06 3.98 -2.33 0.01 3.76 -2.13 0.13 3.76 -2.17 0.40 3.78 -2.34 0.83 3.83 -2.63 1.35 4.11 -2.96 1.73 4.91 -3.35 1.78 5.93 -3.87 0.67 6.63 -3.70 2.26 6.00 -3.47 0.94 6.00 -3.83 0.68 5.99 -3.21 0.51 5.46 -2.48 0.37 5.02 -1.89 0.32 4.76 -1.52 0.36 4.68 -1.40 0.50 4.75 -1.43 0.82 4.94 -1.59 1.23 5.22 -1.96 1.50 5.50 -2.59 1.56 5.79 -3.32 1.26 5.96 -3.77 0.47 6.00 -3.53 2.15 5.00 -3.15 1.77 5.00 -3.62 1.31 5.00 -3.78 0.90 5.00 -3.52 -2.63 -0.95 1.73 -2.82 -1.33 1.60 -2.96 -1.79 1.47 -3.04 -2.38 1.41 -2.82 -1.86 0.83 3.19 -2.47 2.43 2.88 -1.53 2.21 -2.92 -2.29 0.62 -2.97 -2.83 0.51 0.41 -2.72 4.69 0.36 -2.60 4.71 0.44 -2.56 4.55 0.33 -2.37 4.54 0.17 -2.57 4.53 0.47 -2.27 4.32 0.29 -2.05 4.28 0.08 -2.21 4.24 0.64 -2.34 4.09 0.48 -1.87 3.99 0.23 -1.66 3.93 -0.02 -1.77 3.87 -0.21 -2.28 3.84 0.69 -1.81 3.65 0.46 -1.42 3.54 0.16 -1.23 3.48 -0.13 -1.31 3.41 -0.33 -1.75 3.36 0.95 -1.76 3.33 0.72 -1.31 3.17 0.45 -1.01 3.08 -0.42 -1.79 2.87 1.23 -1.69 3.12 1.01 -1.30 2.96 1.46 -1.72 2.98 1.29 -1.31 2.87 1.75 -1.87 2.74 1.58 -1.42 2.76 1.91 -2.66 1.50 2.03 -2.01 2.17 1.92 -1.52 2.44 0.65 -2.90 -1.61 1.16 -2.92 -1.11 2.06 -0.89 -2.61 -0.11 2.63 -2.63 1.14 2.49 -3.14 2.09 1.20 -3.12 -0.20 3.20 -3.10 0.20 3.27 -3.27 1.00 3.05 -2.99 1.72 2.91 -2.45 0.34 3.42 -3.01 1.94 2.88 -3.21 1.85 2.53 -2.11 0.56 2.75 -1.99 0.50 2.86 -2.13 0.42 3.16 -2.52 0.46 3.89 -3.24 0.60 5.11 -4.03 0.54 6.15 -4.44 0.66 5.84 -4.17 1.45 4.58 -2.99 1.01 4.04 -2.43 1.86 4.87 -3.69 1.36 5.52 -3.91 1.10 3.93 -2.98 0.93 2.86 -1.99 0.61 2.55 -1.64 0.09 2.61 -1.61 0.09 2.74 -1.75 0.27 2.80 -1.92 0.50 2.84 -2.12 0.70 2.98 -2.37 0.85 3.36 -2.74 1.06 4.35 -3.43 1.17 5.98 -4.32 1.53 5.43 -2.83 2.38 6.36 -3.57 1.06 6.37 -3.86 0.78 4.96 -2.96 0.58 3.79 -2.15 0.38 3.40 -1.76 0.26 3.36 -1.61 0.25 3.45 -1.62 0.38 3.56 -1.70 0.59 3.69 -1.85 0.85 4.02 -2.22 1.16 4.77 -2.83 1.35 5.86 -3.70 1.54 5.64 -2.30 2.46 6.00 -3.10 2.28 6.00 -3.81 0.96 6.00 -3.87 0.76 5.98 -3.13 0.68 5.40 -2.29 0.56 5.08 -1.71 0.44 5.10 -1.42 0.35 5.28 -1.30 0.37 5.53 -1.26 0.54 5.73 -1.29 0.78 5.86 -1.52 1.06 5.96 -2.11 1.20 6.00 -3.07 0.96 6.00 -3.85 0.48 6.00 -3.80 1.48 5.46 -1.83 2.27 5.00 -2.45 2.17 5.00 -3.45 1.80 5.00 -3.90 1.34 5.00 -3.98 2.55 0.81 1.94 2.73 0.43 1.97 2.83 0.03 2.04 2.49 0.36 2.29 2.99 -0.41 2.13 2.68 -0.02 2.35 2.27 0.28 2.48 3.10 -0.84 2.22 2.94 -0.40 2.34 2.48 -0.13 2.38 3.15 -0.77 2.27 2.68 -0.53 2.29 2.07 -0.32 2.34 3.27 -1.19 2.22 2.85 -0.88 2.21 2.25 -0.69 2.23 -2.73 -1.90 1.17 3.26 -1.82 2.17 2.94 -1.30 2.11 2.41 -0.98 2.11 -2.82 -2.49 1.10 3.03 -1.80 2.00 2.57 -1.26 1.96 -2.85 -3.16 1.09 2.96 -2.57 1.92 2.69 -1.60 1.76 -2.78 -2.40 0.46 2.83 -1.77 1.50 2.90 -1.93 1.25 0.40 -1.68 4.44 0.18 -1.72 4.44 0.53 -2.00 4.43 0.37 -1.90 4.44 0.24 -1.94 4.45 0.06 -2.10 4.44 0.42 -2.21 4.38 0.33 -2.06 4.37 0.27 -2.08 4.38 0.15 -2.25 4.39 -0.07 -2.58 4.38 0.49 -2.80 4.31 0.36 -2.34 4.30 0.32 -2.10 4.25 0.29 -2.08 4.25 0.19 -2.26 4.28 0.00 -2.65 4.30 0.46 -2.85 4.25 0.36 -2.33 4.18 0.33 -2.03 4.12 0.27 -1.96 4.09 0.17 -2.13 4.11 0.00 -2.54 4.15 0.49 -2.71 4.12 0.42 -2.20 4.02 0.36 -1.86 3.93 0.24 -1.76 3.89 0.10 -1.91 3.88 -0.06 -2.32 3.91 0.59 -2.42 3.91 0.51 -1.92 3.77 0.39 -1.60 3.67 0.21 -1.49 3.61 0.00 -1.62 3.58 -0.18 -2.03 3.59 -0.34 -2.67 3.63 0.86 -2.53 3.77 0.75 -1.97 3.59 0.61 -1.56 3.43 0.42 -1.30 3.34 0.17 -1.20 3.28 -0.09 -1.30 3.24 -0.30 -1.68 3.23 -0.45 -2.30 3.25 1.07 -1.91 3.35 0.91 -1.49 3.17 0.69 -1.19 3.04 -0.56 -1.87 2.86 1.38 -1.90 3.16 1.21 -1.36 2.93 1.43 -1.40 2.81 1.69 -1.70 2.66 2.03 -2.11 2.41 1.77 -1.46 2.41 2.29 -2.50 1.79 2.14 -1.79 2.03 1.12 -3.27 -0.79 2.08 -2.52 0.31 0.01 0.86 -2.99 1.06 -0.73 -2.81 1.76 -1.11 -2.55 0.16 0.75 -3.36 0.40 0.44 -3.22 1.14 0.37 -2.92 -0.35 2.42 -3.13 1.02 2.28 -3.58 2.00 1.37 -3.09 -0.28 2.96 -3.11 0.20 3.18 -3.62 1.13 2.94 -3.49 1.89 2.73 -3.01 -0.32 3.30 -2.11 0.10 3.27 -3.43 2.09 2.85 -3.01 0.03 3.29 -2.70 0.30 4.73 -3.96 0.46 6.17 -4.82 0.74 5.94 -4.62 1.71 4.65 -3.31 0.76 3.82 -2.79 1.72 4.63 -4.12 1.59 4.70 -3.69 1.49 2.85 -2.18 0.33 2.68 -1.74 0.38 3.04 -2.12 0.55 3.87 -2.94 0.82 5.69 -4.22 1.87 5.49 -2.88 1.34 4.30 -1.97 2.26 6.00 -3.98 1.52 6.88 -4.47 1.21 5.80 -3.77 1.05 4.02 -2.55 0.84 3.32 -1.99 0.63 3.35 -1.80 0.48 3.74 -1.76 0.39 4.33 -1.80 0.36 4.87 -1.84 0.41 5.16 -1.88 0.51 5.29 -2.06 0.68 5.55 -2.54 0.88 6.17 -3.38 1.92 5.58 -2.10 2.35 5.89 -3.22 2.24 6.00 -4.09 1.40 6.00 -4.39 1.04 6.00 -3.93 0.92 5.86 -3.05 0.86 5.42 -2.26 0.69 5.50 -1.85 0.49 5.77 -1.73 0.35 5.96 -1.71 0.28 5.99 -1.69 0.34 6.00 -1.69 0.45 6.00 -1.75 0.54 6.00 -2.05 0.72 6.00 -2.85 0.67 6.00 -3.77 0.77 6.00 -3.80 1.86 5.19 -1.45 1.90 4.99 -1.74 2.08 5.00 -3.51 1.80 5.00 -4.11 1.38 5.00 -4.17 2.56 0.32 1.61 2.66 -0.05 1.68 2.70 -0.50 1.72 2.76 -0.89 1.86 2.68 -0.46 1.87 2.85 -0.81 1.84 2.99 -1.18 1.79 3.03 -1.70 1.74 2.74 -1.21 1.68 -2.62 -2.26 0.88 2.83 -1.62 1.58 -2.71 -2.89 0.79 2.81 -2.24 1.50 0.60 -0.39 4.00 0.35 -0.37 4.01 0.10 -0.40 4.03 -0.14 -0.48 4.07 0.82 -0.78 4.01 0.57 -0.69 3.98 0.34 -0.69 3.96 0.14 -0.74 3.96 -0.07 -0.82 3.98 -0.34 -0.96 4.02 1.01 -1.34 4.01 0.72 -1.12 3.98 0.49 -1.04 3.92 0.31 -1.05 3.88 0.16 -1.10 3.88 0.01 -1.18 3.91 -0.22 -1.31 3.96 -0.51 -1.56 3.98 0.88 -1.68 3.98 0.60 -1.45 3.92 0.40 -1.35 3.84 0.28 -1.34 3.77 0.19 -1.39 3.76 0.08 -1.48 3.81 -0.11 -1.63 3.87 -0.38 -1.89 3.92 0.73 -1.96 3.94 0.49 -1.70 3.84 0.33 -1.56 3.73 0.24 -1.51 3.64 0.20 -1.54 3.62 0.13 -1.64 3.68 -0.04 -1.83 3.76 -0.28 -2.13 3.83 -0.58 -2.53 3.86 0.94 -2.56 3.92 0.63 -2.13 3.86 0.43 -1.84 3.74 0.30 -1.65 3.61 0.23 -1.56 3.50 0.18 -1.55 3.46 0.12 -1.66 3.51 -0.02 -1.88 3.60 -0.24 -2.23 3.68 -0.52 -2.70 3.74 0.83 -2.61 3.87 0.59 -2.16 3.75 0.43 -1.85 3.59 0.33 -1.63 3.45 0.24 -1.49 3.34 0.15 -1.46 3.28 0.06 -1.57 3.30 -0.08 -1.81 3.38 -0.28 -2.20 3.46 -0.53 -2.73 3.54 0.82 -2.52 3.75 0.64 -2.07 3.57 0.52 -1.75 3.38 0.41 -1.52 3.23 0.28 -1.35 3.12 0.13 -1.30 3.06 -0.03 -1.41 3.06 -0.19 -1.67 3.11 -0.37 -2.08 3.18 -0.59 -2.61 3.26 0.92 -2.28 3.54 0.79 -1.85 3.29 0.67 -1.54 3.09 -0.50 -1.88 2.86 -0.67 -2.41 2.95 1.13 -1.91 3.19 1.01 -1.52 2.93 -0.76 -2.15 2.60 1.33 -1.47 2.79 -0.95 -2.42 2.35 2.03 -1.59 1.86 2.37 -2.97 1.07 2.41 -2.07 1.42 1.26 -3.07 -0.85 2.32 -2.19 0.21 -0.45 0.72 -3.32 0.37 -0.77 -3.11 1.34 -0.89 -2.78 0.35 0.74 -3.71 0.61 0.29 -3.65 1.46 0.17 -3.38 -0.87 3.00 -1.84 -0.74 2.29 -3.49 0.52 2.19 -3.97 1.50 1.88 -4.01 -0.21 2.64 -3.11 0.42 3.04 -3.88 1.48 2.85 -3.91 2.21 2.61 -3.48 2.69 1.96 -2.45 -0.58 3.10 -2.28 -0.19 3.13 -3.74 0.88 3.30 -4.46 1.85 3.29 -4.08 2.16 2.48 -2.75 -0.10 2.77 -2.41 0.16 4.22 -3.77 0.55 5.89 -5.02 1.11 5.74 -4.82 2.12 4.51 -3.45 2.58 3.37 -2.22 0.04 3.25 -1.17 0.46 3.61 -2.95 1.56 4.44 -4.37 1.85 5.41 -4.65 1.81 3.64 -3.25 0.19 3.15 -2.06 0.20 3.28 -2.31 0.32 3.90 -2.93 0.62 5.50 -4.22 2.29 5.16 -2.66 2.57 3.56 -1.14 1.05 3.87 -1.83 1.96 5.30 -4.00 1.53 6.41 -4.63 1.34 4.76 -3.54 1.17 3.34 -2.55 0.93 3.12 -2.26 0.76 3.82 -2.26 0.60 5.13 -2.36 0.42 6.30 -2.44 0.32 6.79 -2.45 0.29 6.98 -2.46 0.31 6.97 -2.49 0.35 6.83 -2.70 0.50 6.77 -3.33 0.59 7.00 -4.29 2.13 5.23 -1.90 1.80 4.72 -2.45 2.10 6.00 -4.22 1.79 6.00 -4.60 1.43 6.00 -4.49 1.16 6.00 -3.90 1.10 5.58 -3.02 0.99 5.58 -2.51 0.78 5.92 -2.34 1.19 6.00 -3.62 1.83 4.85 -1.29 1.32 3.62 -0.50 1.74 5.00 -2.92 1.72 5.00 -4.06 2.68 -1.35 1.47 2.71 -1.91 1.42 -2.71 -1.98 0.38 -2.79 -2.02 0.24 -2.87 -2.03 -0.02 -2.80 -1.78 -0.88 0.83 0.47 3.51 0.55 0.55 3.48 0.32 0.54 3.48 0.13 0.49 3.51 -0.07 0.43 3.57 -0.30 0.29 3.66 1.12 0.08 3.51 0.78 0.18 3.44 0.52 0.19 3.37 0.32 0.14 3.34 0.14 0.09 3.35 -0.03 0.04 3.41 -0.24 -0.04 3.50 -0.51 -0.21 3.59 1.39 -0.39 3.54 1.01 -0.24 3.47 0.70 -0.21 3.38 0.47 -0.24 3.28 0.28 -0.29 3.22 0.15 -0.35 3.22 0.01 -0.39 3.28 -0.16 -0.45 3.37 -0.40 -0.57 3.47 -0.67 -0.79 3.55 1.60 -0.95 3.55 1.22 -0.70 3.52 0.87 -0.62 3.43 0.59 -0.61 3.29 0.39 -0.64 3.16 0.24 -0.70 3.08 0.15 -0.76 3.07 0.05 -0.81 3.13 -0.09 -0.86 3.24 -0.30 -0.96 3.36 -0.55 -1.13 3.45 -0.80 -1.44 3.52 1.40 -1.24 3.54 1.04 -1.03 3.48 0.72 -0.96 3.36 0.48 -0.95 3.20 0.30 -0.97 3.04 0.19 -1.02 2.94 0.13 -1.08 2.91 0.09 -1.13 2.99 -0.03 -1.19 3.10 -0.22 -1.29 3.22 -0.47 -1.46 3.33 -0.70 -1.74 3.44 -0.90 -2.18 3.50 1.62 -1.89 3.51 1.22 -1.52 3.51 0.87 -1.32 3.41 0.60 -1.23 3.26 0.40 -1.19 3.09 0.25 -1.18 2.92 -0.01 -1.37 2.95 -0.20 -1.51 3.07 -0.44 -1.72 3.19 -0.66 -2.04 3.32 -0.87 -2.47 3.40 1.43 -2.12 3.51 1.05 -1.74 3.46 0.76 -1.53 3.32 0.54 -1.40 3.13 -0.47 -1.88 2.99 -0.69 -2.25 3.13 -0.89 -2.74 3.24 1.29 -2.29 3.51 0.96 -1.89 3.39 0.72 -1.65 3.19 -0.76 -2.33 2.88 -0.94 -2.89 3.01 1.23 -2.37 3.46 0.97 -1.91 3.24 0.79 -1.66 2.99 -0.86 -2.31 2.57 -1.02 -2.88 2.72 1.33 -2.32 3.28 1.12 -1.80 2.99 -1.10 -2.77 2.39 -1.17 -2.57 2.06 2.35 -1.77 1.22 2.50 -2.39 0.55 1.24 -2.62 -1.28 -0.95 1.00 -3.34 -0.42 -0.35 -3.54 0.72 -0.38 -3.24 0.79 0.84 -4.01 2.16 0.18 -3.71 3.54 1.08 -2.04 -1.01 2.99 -1.31 -1.10 2.26 -3.57 -0.17 2.19 -4.23 1.28 1.83 -4.08 0.06 2.20 -3.16 0.97 2.78 -4.07 2.09 2.87 -4.20 2.71 2.57 -3.65 3.09 1.83 -2.52 -0.76 2.94 -2.14 -0.43 2.88 -3.89 0.84 3.20 -4.52 1.90 2.96 -3.94 2.08 1.82 -2.63 0.26 3.63 -3.67 0.97 5.27 -4.95 1.95 5.13 -4.57 2.65 4.19 -3.37 3.06 3.18 -2.21 3.09 2.41 -1.21 -0.07 3.06 -1.08 0.20 3.28 -2.93 1.31 4.10 -4.36 1.85 4.81 -4.94 1.92 4.33 -4.37 1.76 2.64 -2.98 0.30 5.27 -2.97 0.18 5.77 -3.03 0.12 5.13 -2.97 0.15 4.40 -2.98 0.32 4.41 -3.35 0.60 5.46 -4.40 2.71 4.46 -2.41 2.74 3.11 -1.29 0.74 3.44 -1.62 1.48 4.42 -3.46 1.91 5.66 -4.95 1.74 6.04 -5.16 1.54 5.21 -4.48 1.37 3.61 -3.29 1.12 2.80 -2.75 0.95 3.12 -2.71 0.86 4.80 -2.91 0.64 6.45 -3.08 0.48 6.89 -3.17 0.33 6.93 -3.23 0.21 6.98 -3.23 0.17 7.00 -3.19 0.16 7.00 -3.26 0.23 7.00 -3.63 1.73 6.15 -3.91 2.37 4.41 -1.72 1.09 3.69 -1.46 1.68 4.94 -3.56 1.68 5.89 -4.54 1.43 5.89 -4.38 1.29 5.39 -3.69 1.23 5.25 -3.11 1.08 5.73 -2.91 0.47 6.00 -4.81 1.43 5.57 -3.40 2.04 4.02 -1.11 0.93 3.58 -1.27 1.38 4.90 -3.20 -2.69 -2.13 0.66 2.63 -1.88 1.07 -2.85 -2.35 0.42 2.90 -1.63 0.89 -3.02 -2.50 0.02 3.24 -1.35 0.62 -3.15 -2.55 -0.48 3.54 -1.33 0.66 -3.23 -2.50 -1.08 3.89 -1.18 0.66 1.13 1.00 3.17 0.81 1.18 2.99 0.55 1.22 2.93 0.02 1.03 3.07 -0.17 0.89 3.20 1.89 0.59 3.23 1.49 0.79 3.06 1.09 0.90 2.93 -0.61 0.30 3.20 2.21 0.57 3.13 2.10 0.46 3.11 1.76 0.52 3.05 1.37 0.56 2.95 -0.71 -0.13 3.09 1.86 0.65 3.23 2.03 0.35 3.08 1.88 0.26 3.07 1.55 0.24 3.00 -0.75 -0.63 3.06 1.76 0.18 3.17 1.87 0.01 3.07 1.64 -0.05 3.04 1.32 -0.10 2.96 -0.65 -0.98 2.97 -0.75 -1.24 3.05 1.72 -0.38 3.12 1.71 -0.40 3.05 1.43 -0.42 3.01 -0.63 -1.35 2.86 -0.76 -1.61 2.95 1.71 -0.95 3.09 1.57 -0.82 3.04 1.25 -0.80 2.97 -0.67 -1.70 2.70 -0.82 -2.01 2.81 1.71 -1.51 3.04 1.47 -1.24 3.04 1.11 -1.14 2.94 -0.90 -2.35 2.63 1.71 -2.05 3.00 1.42 -1.59 2.99 1.04 -1.41 2.87 -1.00 -2.57 2.40 1.46 -1.86 2.88 -1.13 -2.66 2.10 1.64 -1.96 2.66 1.90 -1.84 2.31 2.13 -1.62 1.91 2.55 -2.07 0.41 -1.02 2.71 -1.02 -1.41 1.69 -2.87 -1.15 0.36 -3.73 -0.02 -0.11 -3.42 0.73 0.88 -3.44 4.26 1.33 -1.46 -1.21 3.18 -0.75 -1.43 2.29 -2.99 -0.70 1.92 -4.15 1.06 1.32 -3.88 0.60 1.78 -3.37 1.81 2.50 -4.26 2.85 2.80 -4.19 3.39 2.39 -3.40 3.58 1.88 -2.32 -0.92 2.84 -1.78 -0.60 2.55 -3.70 0.79 2.72 -4.37 1.84 2.16 -3.72 1.94 1.07 -2.62 0.62 3.09 -3.72 1.55 4.45 -4.74 2.61 4.38 -4.27 3.30 3.76 -3.18 3.50 2.99 -2.16 3.27 2.52 -1.27 -0.24 2.99 -0.91 -0.07 2.93 -2.77 0.97 3.53 -4.10 1.67 3.92 -4.52 1.82 3.20 -3.94 1.57 1.78 -2.95 0.15 5.92 -3.79 0.38 4.95 -3.88 0.73 5.26 -4.60 0.95 6.28 -5.60 2.73 5.18 -3.84 3.10 3.86 -2.32 2.90 2.90 -1.38 0.48 3.11 -1.42 0.91 3.66 -2.81 1.52 4.39 -4.12 1.58 4.56 -4.52 1.45 3.80 -3.91 1.19 2.76 -3.19 0.99 2.43 -3.02 0.95 3.35 -3.23 0.95 5.87 -3.61 0.76 6.84 -3.83 2.29 5.26 -3.31 2.54 3.61 -1.64 0.72 3.62 -2.07 1.13 4.24 -3.28 1.22 4.41 -3.59 1.18 4.33 -3.29 1.22 4.84 -3.21 1.90 4.60 -2.63 -2.52 -2.55 0.88 -2.67 -2.89 0.91 -2.51 -1.93 1.05 -2.80 -3.28 0.91 2.62 -1.58 1.35 -2.77 -2.26 0.86 -2.94 -3.75 0.75 2.90 -1.63 1.26 -3.06 -2.58 0.40 3.27 -1.63 1.16 -3.23 -1.70 -0.16 -3.34 -2.81 -0.08 3.61 -1.70 1.11 3.36 -0.49 0.65 -3.49 -1.74 -0.59 -3.61 -2.91 -0.59 3.95 -1.76 1.15 3.58 -0.55 0.61 -3.87 -2.92 -1.08 4.30 -1.78 1.25 3.78 -0.59 0.60 3.01 1.21 1.94 1.92 1.24 3.05 1.76 1.32 2.80 1.42 1.41 2.57 2.39 1.78 3.00 2.21 1.60 2.67 2.02 1.40 2.59 1.72 1.29 2.48 2.25 1.73 2.78 2.06 1.49 2.57 1.84 1.22 2.48 2.05 1.39 2.69 1.86 1.14 2.53 2.12 0.90 3.07 1.88 0.87 2.62 1.90 0.22 2.85 1.76 0.30 2.56 1.77 -0.49 2.66 1.74 -1.17 2.48 1.78 -1.81 2.32 1.74 -1.69 2.20 1.95 -1.89 1.96 2.24 -1.89 1.63 -2.79 -0.92 -1.97 -1.06 2.97 -0.03 -1.72 1.36 -2.72 -1.56 -2.12 -3.46 -1.65 2.35 -1.97 -1.65 0.78 -3.40 1.42 0.80 -3.72 4.50 1.51 -1.14 -1.38 3.10 -0.38 -1.70 2.44 -2.17 -1.19 1.49 -3.55 1.36 1.47 -3.63 2.82 2.40 -4.28 3.73 2.70 -3.78 4.05 2.33 -3.11 3.79 1.91 -2.03 -1.11 2.86 -1.28 -0.93 2.25 -3.11 0.55 1.92 -3.91 1.59 1.34 -3.48 0.74 1.83 -3.03 1.20 2.53 -3.85 2.30 3.53 -4.47 3.38 3.77 -3.87 3.87 3.36 -2.86 3.67 2.91 -2.11 3.25 2.56 -1.27 -0.30 2.70 -2.38 0.55 2.84 -3.63 1.32 2.95 -4.02 1.48 2.30 -3.69 1.28 1.26 -3.07 0.74 5.05 -4.21 0.22 6.61 -4.53 0.56 5.16 -4.34 1.08 4.77 -4.66 1.70 5.23 -5.26 2.57 5.09 -4.78 0.61 3.45 -3.07 0.90 3.46 -3.48 0.94 2.99 -3.37 0.85 2.38 -3.17 0.80 2.39 -3.28 0.93 3.83 -3.72 1.01 6.34 -4.26 0.41 6.68 -5.04 0.95 6.16 -5.36 2.04 5.30 -4.45 2.62 3.93 -2.73 0.01 3.27 -1.85 0.28 3.46 -2.35 0.60 3.66 -2.60 0.95 4.35 -3.08 2.54 -2.35 1.38 -2.37 -2.36 1.31 2.77 -2.51 1.43 -2.68 -2.05 1.02 -2.69 -2.81 1.17 3.00 -2.75 1.38 2.94 -1.33 1.44 -2.88 -1.81 0.62 -3.03 -2.49 0.69 -2.95 -3.45 0.80 3.26 -3.02 1.30 3.32 -1.51 1.41 -3.29 -2.04 0.34 -3.45 -2.80 0.32 -3.21 -3.98 0.49 3.64 -1.74 1.45 3.37 -0.88 1.08 -3.29 -1.59 0.10 -3.71 -2.21 0.10 -3.87 -3.04 0.02 3.92 -2.02 1.56 3.59 -1.11 1.18 -3.64 -1.63 -0.03 -4.10 -2.35 -0.01 -4.30 -3.22 -0.15 4.25 -2.20 1.76 3.85 -1.19 1.37 -3.96 -1.59 -0.09 -3.57 -0.88 -0.29 -4.25 -1.55 -0.01 -4.82 -2.43 0.28 -3.76 -0.92 -0.15 -4.51 -1.60 0.32 -5.16 -2.52 0.90 -3.93 -1.00 0.25 -4.72 -1.74 1.00 -5.41 -2.68 2.01 3.02 -0.18 1.59 -3.32 -0.29 0.15 -4.04 -1.13 0.89 -4.85 -1.92 2.16 3.55 1.69 1.73 3.43 1.65 1.79 3.05 1.54 1.78 2.11 1.72 2.56 1.90 1.74 2.22 2.52 1.97 2.54 2.15 1.95 2.06 1.85 1.73 1.92 2.32 1.97 2.24 1.92 1.80 1.94 2.58 1.57 2.70 2.07 1.60 2.08 2.31 1.06 2.40 2.07 0.43 2.14 2.06 -2.22 1.22 2.72 -1.49 0.34 2.52 1.07 1.53 3.85 2.19 2.19 2.72 1.76 2.38 -2.11 1.50 -1.74 -1.73 2.23 -1.42 -2.27 0.07 -3.32 -1.87 -1.46 -3.39 -1.82 2.67 -1.02 -1.95 1.29 -2.56 2.51 0.89 -4.00 4.32 1.93 -0.84 -1.87 2.68 -1.34 1.22 0.60 -3.02 2.63 1.50 -3.85 4.19 2.55 -3.85 4.53 2.70 -3.40 4.37 2.38 -2.67 3.75 2.04 -1.72 -0.12 1.59 -2.99 0.46 0.73 -3.31 0.57 1.95 -3.73 0.57 2.76 -3.94 0.54 2.70 -3.80 0.60 2.22 -3.50 0.73 1.83 -3.23 0.94 1.63 -3.13 1.33 1.69 -3.37 2.17 2.15 -3.89 3.47 3.00 -3.96 4.19 3.40 -3.24 4.16 3.30 -2.47 3.67 2.95 -1.89 -0.27 2.67 -2.57 0.34 2.51 -3.15 0.73 2.05 -3.25 0.77 1.27 -3.08 0.57 0.41 -3.11 0.50 0.93 -3.46 0.66 2.57 -4.09 0.86 6.15 -5.07 0.40 6.37 -5.02 0.96 4.75 -4.47 1.65 4.08 -4.38 2.41 3.95 -4.41 3.13 3.72 -3.81 3.47 3.49 -2.76 -0.40 3.09 -1.77 -0.32 3.10 -2.25 -0.02 2.89 -2.58 0.29 2.53 -2.87 0.51 2.69 -3.30 0.84 4.15 -3.96 1.08 6.26 -4.79 0.35 6.67 -5.11 1.06 5.56 -4.73 1.97 4.64 -4.13 2.53 3.80 -3.13 2.59 3.24 -2.11 -0.46 3.06 -1.35 -0.11 3.34 -1.74 0.48 3.96 -2.45 2.60 -2.40 1.45 2.86 -2.62 1.50 2.69 -1.48 1.61 -2.12 -2.29 1.33 -1.66 -2.66 1.64 3.11 -2.98 1.45 2.99 -1.82 1.57 2.87 -1.08 1.55 -2.84 -2.34 0.84 -2.63 -2.87 1.04 -2.05 -3.44 1.31 3.33 -2.16 1.57 3.22 -1.35 1.62 -3.15 -2.18 0.66 -3.37 -2.70 0.67 -3.15 -3.35 0.80 -2.44 -4.10 1.05 3.67 -2.54 1.55 3.56 -1.64 1.68 3.26 -1.09 1.36 -3.20 -1.94 0.57 -3