# vtk DataFile Version 2.0
VTK from Matlab
ASCII
DATASET STRUCTURED_GRID
DIMENSIONS 14406 1 1
POINTS 14406 float
33.00 79.00 13.00 33.00 80.00 13.00 33.00 85.00 13.00 33.00 86.00 13.00 31.00 93.00 13.00 28.00 101.00 13.00 34.00 73.00 14.00 34.00 74.00 14.00 38.00 74.00 14.00 34.00 75.00 14.00 37.00 75.00 14.00 38.00 75.00 14.00 31.00 76.00 14.00 34.00 76.00 14.00 37.00 76.00 14.00 38.00 76.00 14.00 31.00 77.00 14.00 34.00 77.00 14.00 35.00 77.00 14.00 36.00 77.00 14.00 37.00 77.00 14.00 38.00 77.00 14.00 41.00 77.00 14.00 28.00 78.00 14.00 30.00 78.00 14.00 31.00 78.00 14.00 33.00 78.00 14.00 34.00 78.00 14.00 35.00 78.00 14.00 36.00 78.00 14.00 37.00 78.00 14.00 38.00 78.00 14.00 39.00 78.00 14.00 41.00 78.00 14.00 30.00 79.00 14.00 31.00 79.00 14.00 32.00 79.00 14.00 33.00 79.00 14.00 34.00 79.00 14.00 35.00 79.00 14.00 36.00 79.00 14.00 37.00 79.00 14.00 38.00 79.00 14.00 39.00 79.00 14.00 41.00 79.00 14.00 30.00 80.00 14.00 31.00 80.00 14.00 32.00 80.00 14.00 33.00 80.00 14.00 34.00 80.00 14.00 35.00 80.00 14.00 36.00 80.00 14.00 37.00 80.00 14.00 38.00 80.00 14.00 39.00 80.00 14.00 41.00 80.00 14.00 42.00 80.00 14.00 31.00 81.00 14.00 32.00 81.00 14.00 33.00 81.00 14.00 34.00 81.00 14.00 35.00 81.00 14.00 36.00 81.00 14.00 38.00 81.00 14.00 39.00 81.00 14.00 41.00 81.00 14.00 42.00 81.00 14.00 32.00 82.00 14.00 33.00 82.00 14.00 34.00 82.00 14.00 35.00 82.00 14.00 36.00 82.00 14.00 38.00 82.00 14.00 39.00 82.00 14.00 32.00 83.00 14.00 33.00 83.00 14.00 34.00 83.00 14.00 35.00 83.00 14.00 38.00 83.00 14.00 32.00 84.00 14.00 33.00 84.00 14.00 34.00 84.00 14.00 35.00 84.00 14.00 38.00 84.00 14.00 31.00 85.00 14.00 32.00 85.00 14.00 33.00 85.00 14.00 34.00 85.00 14.00 35.00 85.00 14.00 37.00 85.00 14.00 38.00 85.00 14.00 31.00 86.00 14.00 32.00 86.00 14.00 33.00 86.00 14.00 35.00 86.00 14.00 37.00 86.00 14.00 38.00 86.00 14.00 39.00 86.00 14.00 31.00 87.00 14.00 32.00 87.00 14.00 33.00 87.00 14.00 36.00 87.00 14.00 37.00 87.00 14.00 38.00 87.00 14.00 39.00 87.00 14.00 31.00 88.00 14.00 32.00 88.00 14.00 33.00 88.00 14.00 36.00 88.00 14.00 37.00 88.00 14.00 38.00 88.00 14.00 39.00 88.00 14.00 40.00 88.00 14.00 31.00 89.00 14.00 32.00 89.00 14.00 39.00 89.00 14.00 30.00 90.00 14.00 28.00 94.00 14.00 27.00 95.00 14.00 28.00 95.00 14.00 26.00 96.00 14.00 27.00 96.00 14.00 28.00 96.00 14.00 29.00 96.00 14.00 30.00 96.00 14.00 36.00 96.00 14.00 37.00 96.00 14.00 38.00 96.00 14.00 39.00 96.00 14.00 40.00 96.00 14.00 41.00 96.00 14.00 42.00 96.00 14.00 27.00 97.00 14.00 28.00 97.00 14.00 29.00 97.00 14.00 30.00 97.00 14.00 31.00 97.00 14.00 35.00 97.00 14.00 36.00 97.00 14.00 37.00 97.00 14.00 38.00 97.00 14.00 39.00 97.00 14.00 40.00 97.00 14.00 41.00 97.00 14.00 42.00 97.00 14.00 27.00 98.00 14.00 28.00 98.00 14.00 29.00 98.00 14.00 30.00 98.00 14.00 31.00 98.00 14.00 32.00 98.00 14.00 36.00 98.00 14.00 37.00 98.00 14.00 38.00 98.00 14.00 39.00 98.00 14.00 40.00 98.00 14.00 41.00 98.00 14.00 42.00 98.00 14.00 28.00 99.00 14.00 29.00 99.00 14.00 30.00 99.00 14.00 31.00 99.00 14.00 32.00 99.00 14.00 37.00 99.00 14.00 38.00 99.00 14.00 39.00 99.00 14.00 40.00 99.00 14.00 41.00 99.00 14.00 42.00 99.00 14.00 28.00 100.00 14.00 29.00 100.00 14.00 30.00 100.00 14.00 31.00 100.00 14.00 37.00 100.00 14.00 38.00 100.00 14.00 39.00 100.00 14.00 40.00 100.00 14.00 41.00 100.00 14.00 42.00 100.00 14.00 27.00 101.00 14.00 28.00 101.00 14.00 29.00 101.00 14.00 30.00 101.00 14.00 36.00 58.00 15.00 32.00 71.00 15.00 32.00 72.00 15.00 34.00 72.00 15.00 35.00 72.00 15.00 29.00 73.00 15.00 30.00 73.00 15.00 31.00 73.00 15.00 32.00 73.00 15.00 33.00 73.00 15.00 34.00 73.00 15.00 35.00 73.00 15.00 36.00 73.00 15.00 37.00 73.00 15.00 29.00 74.00 15.00 30.00 74.00 15.00 31.00 74.00 15.00 32.00 74.00 15.00 33.00 74.00 15.00 34.00 74.00 15.00 35.00 74.00 15.00 36.00 74.00 15.00 37.00 74.00 15.00 38.00 74.00 15.00 26.00 75.00 15.00 28.00 75.00 15.00 29.00 75.00 15.00 30.00 75.00 15.00 31.00 75.00 15.00 32.00 75.00 15.00 33.00 75.00 15.00 34.00 75.00 15.00 35.00 75.00 15.00 36.00 75.00 15.00 37.00 75.00 15.00 38.00 75.00 15.00 39.00 75.00 15.00 40.00 75.00 15.00 26.00 76.00 15.00 28.00 76.00 15.00 29.00 76.00 15.00 30.00 76.00 15.00 31.00 76.00 15.00 32.00 76.00 15.00 33.00 76.00 15.00 34.00 76.00 15.00 35.00 76.00 15.00 36.00 76.00 15.00 37.00 76.00 15.00 38.00 76.00 15.00 39.00 76.00 15.00 40.00 76.00 15.00 26.00 77.00 15.00 27.00 77.00 15.00 28.00 77.00 15.00 29.00 77.00 15.00 30.00 77.00 15.00 31.00 77.00 15.00 32.00 77.00 15.00 33.00 77.00 15.00 34.00 77.00 15.00 35.00 77.00 15.00 36.00 77.00 15.00 37.00 77.00 15.00 38.00 77.00 15.00 39.00 77.00 15.00 40.00 77.00 15.00 41.00 77.00 15.00 24.00 78.00 15.00 26.00 78.00 15.00 27.00 78.00 15.00 28.00 78.00 15.00 29.00 78.00 15.00 30.00 78.00 15.00 31.00 78.00 15.00 32.00 78.00 15.00 33.00 78.00 15.00 34.00 78.00 15.00 35.00 78.00 15.00 36.00 78.00 15.00 37.00 78.00 15.00 38.00 78.00 15.00 39.00 78.00 15.00 40.00 78.00 15.00 41.00 78.00 15.00 42.00 78.00 15.00 24.00 79.00 15.00 26.00 79.00 15.00 27.00 79.00 15.00 28.00 79.00 15.00 29.00 79.00 15.00 30.00 79.00 15.00 31.00 79.00 15.00 32.00 79.00 15.00 33.00 79.00 15.00 34.00 79.00 15.00 35.00 79.00 15.00 36.00 79.00 15.00 37.00 79.00 15.00 38.00 79.00 15.00 39.00 79.00 15.00 40.00 79.00 15.00 41.00 79.00 15.00 42.00 79.00 15.00 43.00 79.00 15.00 24.00 80.00 15.00 25.00 80.00 15.00 26.00 80.00 15.00 27.00 80.00 15.00 28.00 80.00 15.00 29.00 80.00 15.00 30.00 80.00 15.00 31.00 80.00 15.00 32.00 80.00 15.00 33.00 80.00 15.00 34.00 80.00 15.00 35.00 80.00 15.00 36.00 80.00 15.00 37.00 80.00 15.00 38.00 80.00 15.00 39.00 80.00 15.00 40.00 80.00 15.00 41.00 80.00 15.00 42.00 80.00 15.00 43.00 80.00 15.00 44.00 80.00 15.00 24.00 81.00 15.00 25.00 81.00 15.00 26.00 81.00 15.00 27.00 81.00 15.00 28.00 81.00 15.00 29.00 81.00 15.00 30.00 81.00 15.00 31.00 81.00 15.00 32.00 81.00 15.00 33.00 81.00 15.00 34.00 81.00 15.00 35.00 81.00 15.00 36.00 81.00 15.00 37.00 81.00 15.00 38.00 81.00 15.00 39.00 81.00 15.00 40.00 81.00 15.00 41.00 81.00 15.00 42.00 81.00 15.00 43.00 81.00 15.00 44.00 81.00 15.00 24.00 82.00 15.00 25.00 82.00 15.00 26.00 82.00 15.00 27.00 82.00 15.00 28.00 82.00 15.00 29.00 82.00 15.00 30.00 82.00 15.00 31.00 82.00 15.00 32.00 82.00 15.00 33.00 82.00 15.00 34.00 82.00 15.00 35.00 82.00 15.00 36.00 82.00 15.00 37.00 82.00 15.00 38.00 82.00 15.00 39.00 82.00 15.00 40.00 82.00 15.00 42.00 82.00 15.00 43.00 82.00 15.00 44.00 82.00 15.00 24.00 83.00 15.00 25.00 83.00 15.00 26.00 83.00 15.00 27.00 83.00 15.00 28.00 83.00 15.00 29.00 83.00 15.00 30.00 83.00 15.00 31.00 83.00 15.00 32.00 83.00 15.00 33.00 83.00 15.00 34.00 83.00 15.00 35.00 83.00 15.00 36.00 83.00 15.00 37.00 83.00 15.00 38.00 83.00 15.00 39.00 83.00 15.00 40.00 83.00 15.00 43.00 83.00 15.00 44.00 83.00 15.00 23.00 84.00 15.00 24.00 84.00 15.00 25.00 84.00 15.00 26.00 84.00 15.00 27.00 84.00 15.00 28.00 84.00 15.00 29.00 84.00 15.00 30.00 84.00 15.00 31.00 84.00 15.00 32.00 84.00 15.00 33.00 84.00 15.00 34.00 84.00 15.00 35.00 84.00 15.00 36.00 84.00 15.00 37.00 84.00 15.00 38.00 84.00 15.00 39.00 84.00 15.00 40.00 84.00 15.00 44.00 84.00 15.00 22.00 85.00 15.00 23.00 85.00 15.00 24.00 85.00 15.00 25.00 85.00 15.00 26.00 85.00 15.00 27.00 85.00 15.00 28.00 85.00 15.00 29.00 85.00 15.00 30.00 85.00 15.00 31.00 85.00 15.00 32.00 85.00 15.00 33.00 85.00 15.00 34.00 85.00 15.00 35.00 85.00 15.00 36.00 85.00 15.00 37.00 85.00 15.00 38.00 85.00 15.00 39.00 85.00 15.00 40.00 85.00 15.00 44.00 85.00 15.00 22.00 86.00 15.00 23.00 86.00 15.00 24.00 86.00 15.00 25.00 86.00 15.00 26.00 86.00 15.00 27.00 86.00 15.00 28.00 86.00 15.00 29.00 86.00 15.00 30.00 86.00 15.00 31.00 86.00 15.00 32.00 86.00 15.00 33.00 86.00 15.00 34.00 86.00 15.00 35.00 86.00 15.00 36.00 86.00 15.00 37.00 86.00 15.00 38.00 86.00 15.00 39.00 86.00 15.00 40.00 86.00 15.00 44.00 86.00 15.00 19.00 87.00 15.00 24.00 87.00 15.00 25.00 87.00 15.00 27.00 87.00 15.00 29.00 87.00 15.00 30.00 87.00 15.00 31.00 87.00 15.00 32.00 87.00 15.00 33.00 87.00 15.00 34.00 87.00 15.00 36.00 87.00 15.00 37.00 87.00 15.00 38.00 87.00 15.00 39.00 87.00 15.00 40.00 87.00 15.00 42.00 87.00 15.00 43.00 87.00 15.00 19.00 88.00 15.00 27.00 88.00 15.00 28.00 88.00 15.00 29.00 88.00 15.00 30.00 88.00 15.00 31.00 88.00 15.00 32.00 88.00 15.00 33.00 88.00 15.00 36.00 88.00 15.00 37.00 88.00 15.00 38.00 88.00 15.00 39.00 88.00 15.00 40.00 88.00 15.00 42.00 88.00 15.00 43.00 88.00 15.00 27.00 89.00 15.00 29.00 89.00 15.00 30.00 89.00 15.00 31.00 89.00 15.00 32.00 89.00 15.00 33.00 89.00 15.00 38.00 89.00 15.00 39.00 89.00 15.00 40.00 89.00 15.00 41.00 89.00 15.00 42.00 89.00 15.00 28.00 90.00 15.00 29.00 90.00 15.00 30.00 90.00 15.00 31.00 90.00 15.00 40.00 90.00 15.00 41.00 90.00 15.00 42.00 90.00 15.00 27.00 91.00 15.00 28.00 91.00 15.00 29.00 91.00 15.00 30.00 91.00 15.00 26.00 92.00 15.00 27.00 92.00 15.00 29.00 92.00 15.00 26.00 93.00 15.00 25.00 94.00 15.00 26.00 94.00 15.00 25.00 95.00 15.00 26.00 95.00 15.00 27.00 95.00 15.00 42.00 95.00 15.00 43.00 95.00 15.00 25.00 96.00 15.00 26.00 96.00 15.00 27.00 96.00 15.00 28.00 96.00 15.00 29.00 96.00 15.00 40.00 96.00 15.00 41.00 96.00 15.00 42.00 96.00 15.00 43.00 96.00 15.00 26.00 97.00 15.00 27.00 97.00 15.00 28.00 97.00 15.00 29.00 97.00 15.00 30.00 97.00 15.00 31.00 97.00 15.00 35.00 97.00 15.00 36.00 97.00 15.00 37.00 97.00 15.00 38.00 97.00 15.00 39.00 97.00 15.00 40.00 97.00 15.00 41.00 97.00 15.00 42.00 97.00 15.00 43.00 97.00 15.00 26.00 98.00 15.00 27.00 98.00 15.00 28.00 98.00 15.00 29.00 98.00 15.00 30.00 98.00 15.00 31.00 98.00 15.00 32.00 98.00 15.00 36.00 98.00 15.00 37.00 98.00 15.00 38.00 98.00 15.00 39.00 98.00 15.00 40.00 98.00 15.00 41.00 98.00 15.00 42.00 98.00 15.00 43.00 98.00 15.00 27.00 99.00 15.00 28.00 99.00 15.00 29.00 99.00 15.00 31.00 99.00 15.00 36.00 99.00 15.00 37.00 99.00 15.00 38.00 99.00 15.00 39.00 99.00 15.00 40.00 99.00 15.00 41.00 99.00 15.00 42.00 99.00 15.00 27.00 100.00 15.00 28.00 100.00 15.00 29.00 100.00 15.00 30.00 100.00 15.00 31.00 100.00 15.00 38.
[...]
POINT_DATA 14406
VECTORS vector_field float
0.26 -7.66 3.90 -0.66 -4.73 1.63 1.02 -4.20 -0.12 1.36 -3.99 0.35 3.22 1.57 -1.24 0.27 4.90 -4.62 1.46 -15.74 -0.80 1.70 -15.97 -0.11 4.61 -26.44 4.46 2.42 -13.76 3.17 2.78 -25.15 4.40 2.17 -24.53 4.49 -0.81 -11.27 5.77 2.96 -11.34 6.09 0.79 -17.07 2.22 1.91 -16.14 4.32 -0.57 -11.68 6.06 3.20 -11.41 6.71 3.07 -12.68 6.10 2.87 -14.06 5.63 2.88 -14.27 5.92 2.71 -13.75 6.54 4.08 -5.91 16.08 -0.86 -15.65 5.41 -1.41 -11.34 6.61 -0.35 -12.13 6.45 1.60 -11.68 6.94 3.68 -9.65 7.57 3.35 -12.63 6.75 3.07 -13.75 6.32 3.18 -13.84 6.63 4.21 -12.37 8.01 4.62 -10.36 10.81 3.70 -4.75 12.16 -0.29 -9.16 6.48 0.47 -9.63 6.98 1.40 -10.48 7.14 2.42 -9.88 7.03 2.16 -8.31 4.15 4.19 -9.83 7.96 4.28 -12.29 7.63 4.78 -11.87 8.49 4.65 -10.46 10.43 5.29 -9.15 13.69 2.96 -6.08 11.04 -0.77 -8.18 3.09 0.03 -8.81 3.31 0.47 -9.78 4.40 0.47 -9.08 3.43 -0.31 -4.80 0.21 3.11 -9.18 4.69 5.69 -9.76 9.62 5.33 -9.56 10.85 4.93 -9.52 12.01 4.14 -8.80 12.36 5.46 -6.84 3.81 4.79 -4.99 6.11 -0.61 -7.78 -1.25 -1.59 -8.97 -1.24 -0.68 -7.64 -0.15 0.95 -3.39 1.04 0.27 -8.34 0.70 3.50 -9.65 4.67 3.14 -9.00 5.32 3.12 -8.30 4.38 3.67 -5.12 3.16 4.56 -5.67 6.01 -0.86 -7.45 -0.38 -0.42 -5.29 0.75 1.60 -3.62 0.91 0.87 -7.10 -0.42 1.82 -9.75 2.02 3.34 -8.81 3.01 3.22 -7.80 2.52 -1.19 -6.52 0.20 -0.06 -4.20 0.28 1.87 -3.44 1.16 2.57 -5.61 0.62 1.22 -8.00 0.66 -0.39 -5.61 0.04 0.38 -4.08 3.83 1.49 -2.78 2.55 2.79 -3.95 0.94 2.02 -7.52 0.76 0.21 -6.68 -0.91 -0.81 -6.02 0.28 0.36 -4.20 4.36 1.27 -2.65 1.24 0.45 -2.60 2.69 2.62 -6.12 0.89 2.37 -7.06 0.80 0.27 -7.28 -0.88 -0.89 -6.15 0.49 0.53 -4.06 4.11 0.13 -1.90 2.54 3.03 -6.15 1.25 2.48 -6.77 0.75 2.68 -6.91 0.56 -0.55 -5.51 1.13 -0.24 -5.47 2.61 0.72 -4.79 -0.34 -0.20 -3.26 3.51 2.76 -5.92 1.68 2.73 -6.59 1.02 3.40 -6.83 0.50 0.68 -4.65 2.03 0.09 -5.25 0.67 0.60 -4.92 -0.45 0.18 -2.70 2.95 1.77 -5.27 2.31 2.84 -6.33 1.39 2.73 -6.64 0.65 1.11 -4.52 0.98 0.89 -3.88 1.48 0.36 -4.47 0.35 1.31 -4.48 1.26 1.01 -4.09 1.20 2.67 -0.47 -2.20 3.32 -0.19 -2.25 2.45 0.81 -2.80 3.38 1.28 -2.98 4.75 0.11 -4.61 2.92 0.68 -4.32 1.01 3.40 -1.83 -0.64 7.09 -3.09 1.85 3.82 -4.57 3.96 4.33 -4.38 3.58 3.10 -4.16 2.65 3.29 -3.97 1.76 3.68 -3.81 1.04 3.82 -3.03 1.12 2.57 -2.61 1.89 0.86 -3.40 0.81 8.74 -2.82 0.03 8.80 -3.20 -0.67 8.62 -4.16 -1.56 6.86 -4.25 0.34 3.59 -5.38 2.91 4.16 -4.96 4.66 5.67 -4.88 3.80 7.17 -4.21 2.94 8.73 -3.83 1.75 8.89 -3.78 0.54 8.89 -3.56 -0.19 8.88 -3.14 1.40 7.91 -4.63 0.37 7.91 -5.12 -0.27 7.92 -5.29 -0.77 7.86 -5.14 -1.43 6.65 -4.89 -0.13 3.80 -4.64 4.00 3.52 -5.27 4.60 5.15 -5.20 3.90 7.78 -4.68 2.94 7.89 -4.39 1.71 7.90 -3.93 0.53 7.89 -3.63 -0.60 7.88 -3.44 0.61 6.92 -6.23 -0.03 6.93 -6.33 -0.53 6.89 -5.95 -1.45 6.66 -5.68 -0.46 3.75 -5.12 4.58 4.14 -5.34 3.79 6.41 -4.94 2.87 6.89 -4.58 1.72 6.90 -4.08 0.45 6.90 -3.73 -0.47 6.90 -3.89 0.39 5.90 -5.61 -0.14 5.91 -7.13 -0.60 5.88 -7.07 -1.32 5.86 -6.41 4.51 3.17 -5.36 3.75 5.45 -5.05 2.68 5.89 -4.52 1.59 5.90 -4.06 0.43 5.90 -3.94 -0.34 5.90 -4.18 1.31 4.92 -5.02 0.37 4.91 -5.27 -0.63 4.90 -5.67 -0.97 4.91 -6.99 -3.38 -32.54 23.12 0.24 -14.10 -1.41 -2.42 -23.37 2.67 2.93 -23.07 2.75 1.25 -28.48 4.25 0.73 -32.49 5.04 -0.23 -30.43 4.22 -1.26 -27.58 3.48 -2.50 -22.45 2.32 2.06 -15.44 -2.24 3.63 -22.72 2.73 1.70 -29.12 4.27 0.87 -30.80 5.02 0.63 -31.28 5.23 0.51 -32.56 4.78 -0.76 -28.43 3.57 -2.12 -24.69 2.53 -0.59 -18.86 0.13 1.53 -14.28 -0.38 2.50 -18.32 1.04 2.53 -27.08 3.51 1.69 -30.68 4.68 1.31 -31.30 4.96 1.27 -30.17 4.95 -3.03 -28.35 4.37 0.99 -33.07 4.75 -0.14 -30.59 4.06 -1.95 -26.45 2.63 -3.10 -23.73 2.02 -0.68 -19.50 0.36 0.86 -14.55 0.84 1.41 -17.25 -1.68 3.00 -23.88 2.66 2.78 -28.26 3.83 2.17 -29.92 4.55 2.48 -29.66 4.71 3.17 -29.46 4.64 3.51 -29.12 4.28 -2.09 -29.97 4.62 0.22 -31.36 4.45 -0.71 -28.99 3.37 -2.55 -25.55 2.30 -0.48 -20.56 1.16 0.26 -17.86 -1.57 0.81 -15.05 1.37 1.67 -17.17 0.18 2.01 -20.67 1.35 3.04 -26.23 3.15 3.39 -27.77 3.30 3.83 -28.86 3.84 4.26 -29.36 3.80 4.28 -29.44 3.29 -2.29 -30.24 4.21 -1.26 -30.75 4.49 -0.22 -30.43 3.90 -1.69 -28.15 2.64 -0.48 -21.59 1.67 -0.51 -17.06 1.71 -0.62 -16.75 1.43 0.59 -13.91 3.00 2.92 -12.86 4.82 1.64 -18.15 0.33 1.37 -22.19 1.60 1.76 -25.03 2.67 1.95 -26.30 3.36 1.67 -27.56 3.53 1.64 -27.68 3.55 0.59 -26.54 3.63 -3.21 -13.16 9.51 -1.29 -30.23 3.73 -0.84 -30.48 3.88 -1.37 -29.49 2.80 -2.15 -26.35 2.16 -0.92 -15.08 3.76 -0.22 -13.67 4.58 0.25 -13.37 4.78 1.48 -12.60 5.21 3.38 -12.38 5.75 2.95 -14.60 4.60 1.20 -17.59 2.16 0.54 -19.39 0.63 -0.00 -20.29 0.89 0.34 -18.81 2.77 0.76 -19.02 3.38 0.29 -19.78 4.78 0.31 -18.91 6.85 -2.19 -15.22 7.79 -2.17 -30.47 1.66 -2.30 -30.51 2.52 -1.78 -27.44 2.37 -0.10 -19.10 2.61 -0.45 -13.80 4.97 0.17 -13.49 5.21 0.70 -13.31 5.45 1.43 -12.65 5.95 4.39 -9.63 6.29 3.19 -13.88 5.61 2.69 -15.57 4.83 2.10 -16.51 4.46 1.62 -17.40 4.26 1.51 -18.07 4.80 1.45 -17.57 5.85 1.18 -17.48 6.47 1.25 -16.52 7.43 2.10 -14.27 9.79 -2.68 -15.70 8.20 0.68 -23.17 3.88 -0.29 -26.81 2.74 -0.69 -26.43 2.64 0.08 -21.18 3.01 -0.96 -15.92 4.76 -1.07 -11.96 6.07 0.22 -12.20 6.28 1.86 -10.98 6.01 1.48 -10.53 4.31 0.68 -7.74 -1.07 4.03 -11.03 6.91 2.98 -15.23 5.56 2.49 -16.00 5.35 2.04 -16.61 5.27 1.75 -16.83 5.54 2.90 -14.94 7.36 3.01 -14.17 8.58 2.19 -14.89 8.68 2.15 -14.77 9.92 1.53 -13.62 13.47 -2.50 -16.57 8.15 0.24 -21.73 5.41 -0.07 -22.82 4.17 -0.55 -21.56 4.05 -1.11 -18.52 4.62 -2.02 -13.23 5.96 0.04 -11.77 6.31 0.76 -11.28 5.49 0.72 -10.81 3.43 -0.35 -8.80 -0.04 0.53 -4.70 1.16 3.93 -10.73 4.75 4.32 -12.27 7.31 4.02 -14.34 6.88 3.50 -15.18 6.71 3.68 -14.71 7.53 3.78 -13.18 10.36 3.68 -12.61 12.19 2.76 -14.13 10.90 2.14 -14.79 10.99 1.82 -14.03 14.73 -2.45 -17.22 8.33 -0.78 -19.58 6.27 -0.36 -20.77 5.15 -1.06 -18.82 5.27 -1.72 -16.92 5.53 -2.57 -12.53 6.72 0.28 -12.17 5.35 0.20 -11.98 4.10 0.23 -10.39 1.64 -0.11 -6.31 1.19 0.36 -3.69 3.36 0.28 -9.21 -0.16 5.35 -11.69 7.99 5.06 -11.98 9.40 4.25 -12.50 9.66 4.08 -12.48 10.86 4.37 -11.88 13.05 3.23 -11.83 15.14 2.50 -13.56 15.13 1.58 -12.53 17.67 -2.16 -17.78 8.36 -1.12 -19.34 6.50 -1.18 -18.48 6.02 -2.65 -16.22 6.81 -3.57 -14.22 7.88 -2.09 -12.91 6.32 -0.56 -12.82 4.12 -0.14 -12.00 2.61 -0.29 -10.87 -0.36 -0.25 -4.67 3.38 0.78 -3.72 3.56 1.57 -6.69 -0.14 2.57 -11.33 2.59 3.65 -12.11 5.67 4.57 -12.47 10.45 4.01 -12.34 11.13 3.31 -11.69 11.71 1.76 -10.30 15.55 0.76 -9.91 16.12 -2.16 -14.22 15.69 -2.17 -17.45 10.02 -2.07 -17.42 8.21 -3.53 -15.60 10.01 -3.82 -14.21 9.88 -3.64 -13.81 8.66 -1.92 -13.15 4.97 -0.91 -12.55 2.57 -0.69 -11.20 0.29 -1.00 -9.96 -0.80 0.01 -4.45 4.24 1.01 -2.87 3.95 1.55 -4.47 2.09 1.38 -8.16 -1.33 2.39 -10.94 1.07 3.49 -12.88 7.14 2.43 -12.55 6.56 2.73 -11.12 3.76 1.12 -10.32 10.75 -1.53 -22.08 0.82 -1.10 -12.31 15.67 -2.96 -15.12 14.74 -3.55 -15.15 13.13 -3.86 -14.04 12.61 -3.38 -13.09 9.98 -2.44 -13.04 6.48 -1.97 -11.20 1.87 -1.11 -11.54 -0.74 -1.02 -10.39 -0.47 -1.70 -7.61 -0.71 0.12 -4.04 4.59 0.58 -2.14 3.88 0.04 -3.04 3.91 2.26 -5.15 1.22 2.39 -8.52 0.23 3.15 -11.41 1.59 3.61 -10.93 1.87 3.93 -9.98 2.69 5.26 -9.69 6.70 -1.69 -18.37 0.18 0.16 -24.84 -2.52 -1.35 -12.63 12.22 -2.00 -12.53 9.77 -4.07 -11.19 2.69 -2.79 -11.44 3.07 -3.36 -11.57 2.01 -2.03 -11.08 1.08 -0.88 -11.17 -0.20 -1.33 -9.13 -0.76 -1.56 -6.99 -0.64 0.38 -3.75 4.06 0.36 -1.87 3.40 -0.26 -1.98 3.83 -0.57 -3.53 3.83 3.73 -6.58 0.12 2.91 -9.80 0.27 3.55 -10.13 1.23 4.57 -9.25 2.67 4.09 -7.69 6.18 -4.11 -2.74 0.38 -7.30 -8.48 -1.06 -3.03 -14.20 2.84 -4.31 -10.41 2.61 -1.95 -11.12 0.57 -1.17 -10.44 -0.91 -1.58 -8.49 -0.62 -0.07 -5.66 3.63 0.41 -3.09 1.83 0.26 -2.08 3.45 -0.82 -2.41 3.71 3.21 -5.86 0.88 3.38 -7.99 -0.09 3.64 -9.25 1.23 3.81 -8.27 1.65 4.62 -5.56 -0.72 5.58 -5.55 0.71 -2.36 -1.84 -2.65 -2.00 -7.89 0.68 -2.69 -10.12 1.23 -1.79 -10.35 0.04 -0.75 -9.31 -0.85 0.26 -6.84 3.82 0.29 -3.84 0.27 0.66 -2.80 3.04 -0.54 -2.21 3.22 0.63 -3.99 2.75 3.27 -6.60 0.74 4.51 -7.76 0.40 4.85 -7.34 0.11 4.93 -5.00 0.96 4.14 -4.51 -0.49 -0.44 -7.38 -0.30 -0.10 -8.94 -0.46 -0.11 -7.34 1.10 0.88 -5.90 4.27 0.44 -3.25 2.09 0.88 -2.24 2.13 1.27 -3.87 0.78 2.81 -6.89 0.76 3.45 -7.04 0.90 2.78 -5.30 1.27 2.83 -4.09 1.33 0.46 -7.51 -0.02 0.95 -7.01 0.74 1.53 -6.39 3.30 0.96 -4.99 4.15 2.45 -5.13 1.02 2.33 -3.84 0.66 1.78 -3.42 0.01 0.31 -6.32 0.15 0.75 -6.95 0.83 1.18 -6.28 1.57 1.31 -5.48 2.74 1.31 -4.01 0.23 0.71 -5.01 0.47 1.30 -3.74 0.77 1.77 -2.63 -0.86 2.37 -1.50 -1.72 2.37 -1.85 -1.13 3.56 -0.17 -2.76 3.31 -0.40 -2.80 3.19 -0.71 -2.56 0.57 1.64 -2.70 -0.21 2.17 -2.92 2.68 1.87 -3.62 3.44 -0.14 -3.70 2.91 0.01 -3.85 2.12 0.61 -3.98 1.33 2.51 -1.50 2.02 3.82 -3.68 1.11 3.93 -3.24 0.47 4.25 -3.08 1.03 2.03 -2.50 2.13 1.35 -3.77 2.14 0.81 -3.58 1.63 2.61 -2.38 0.73 3.32 -2.75 -0.68 6.18 -4.01 -1.56 6.37 -4.73 0.32 2.83 -5.57 2.09 3.00 -5.59 3.86 3.43 -5.35 3.52 2.28 -5.15 2.78 2.80 -5.01 1.85 7.36 -4.65 0.52 8.88 -4.50 1.40 8.79 -3.61 1.75 8.82 -3.19 2.74 7.94 -3.81 1.81 7.93 -4.29 0.82 7.92 -4.70 0.09 7.86 -4.39 -0.65 7.79 -5.58 -1.62 7.22 -5.45 -0.33 3.16 -5.36 2.55 3.06 -5.83 4.62 4.34 -5.89 3.79 6.19 -5.20 2.81 7.89 -4.91 1.54 7.89 -4.62 0.41 7.89 -4.45 -0.63 7.88 -4.37 -0.97 7.86 -4.11 1.35 6.91 -6.32 0.46 6.90 -6.69 -0.44 6.91 -6.50 -1.67 6.79 -6.10 2.00 2.62 -5.67 4.52 3.93 -6.12 3.87 6.76 -5.53 2.70 6.90 -5.07 1.52 6.90 -4.69 0.35 6.89 -4.52 -0.48 6.90 -4.82 1.34 5.91 -6.16 0.42 5.91 -6.41 -0.52 5.90 -6.75 -1.14 5.92 -6.96 -1.26 5.67 -5.42 3.20 4.10 -4.03 2.50 5.90 -4.71 1.31 5.89 -4.56 0.40 5.90 -4.79 -0.36 5.90 -4.90 -0.29 5.78 -3.87 3.08 4.93 -3.72 1.40 4.91 -5.77 0.35 4.92 -6.04 -0.59 4.92 -6.00 1.41 -25.76 20.50 0.77 -27.05 22.91 0.18 -26.66 22.19 -1.58 -26.90 22.65 -2.62 -27.37 23.30 -3.56 -27.41 23.36 1.65 -24.07 15.76 1.49 -27.01 21.05 0.86 -28.03 22.80 0.22 -27.23 21.35 -0.67 -26.62 20.23 -1.49 -27.68 22.34 -2.64 -28.21 23.09 -3.58 -28.38 23.32 1.73 -25.14 15.83 1.56 -28.19 21.36 0.92 -28.98 22.67 0.29 -27.86 20.65 -0.66 -27.28 19.65 -1.42 -28.15 21.32 -2.61 -29.02 22.82 -3.59 -29.30 23.22 -4.53 -29.25 23.17 1.67 -25.97 15.49 1.59 -29.23 21.43 1.00 -29.91 22.54 0.28 -28.71 20.37 -0.67 -27.62 18.51 -1.35 -28.39 19.92 -2.56 -29.89 22.65 -3.60 -30.18 23.07 -4.54 -30.21 23.12 1.70 -27.02 15.56 1.64 -30.27 21.48 1.03 -30.83 22.41 0.25 -29.61 20.18 -0.72 -28.07 17.53 -1.57 -28.47 18.27 -2.47 -30.69 22.36 -3.60 -31.12 22.98 -4.54 -31.16 23.04 1.72 -27.98 15.48 1.69 -31.33 21.59 1.00 -31.76 22.30 0.23 -30.68 20.29 -0.46 -27.57 14.78 -1.67 -28.63 16.84 -2.42 -31.40 21.84 -3.58 -32.01 22.82 -4.54 -32.10 22.97 2.24 15.75 -6.49 2.61 -27.95 12.88 1.98 -29.58 16.71 1.71 -32.32 21.53 0.99 -32.68 22.16 0.22 -31.84 20.59 -0.71 -29.42 16.48 -1.36 -28.45 14.41 -2.30 -32.03 21.12 -3.53 -32.92 22.70 -4.52 -33.03 22.88 -5.44 -32.95 22.77 -6.09 -31.68 20.52 2.03 -30.61 16.74 1.76 -33.32 21.52 0.97 -33.59 22.00 0.19 -32.94 20.76 -0.70 -31.59 18.45 -0.80 -28.03 11.76 -2.23 -32.84 20.78 -3.46 -33.77 22.49 -4.48 -33.96 22.77 -5.40 -33.85 22.63 1.81 -34.29 21.43 1.00 -34.45 21.72 0.17 -33.86 20.60 -0.75 -33.22 19.52 -1.19 -29.94 13.17 -2.22 -33.73 20.58 -3.41 -34.68 22.37 -4.45 -34.89 22.68 -5.30 -34.66 22.37 1.05 -35.18 21.17 0.16 -34.64 20.19 -0.74 -33.46 18.19 -0.77 -30.01 11.80 -2.25 -33.79 18.98 -3.38 -35.37 21.80 -4.35 -35.71 22.43 0.14 -34.23 17.72 -0.65 -31.82 12.69 -0.55 -29.51 10.01 -2.13 -32.03 13.38 -1.44 -29.70 2.86 1.48 -25.73 2.48 1.75 -36.02 7.49 0.98 -33.35 5.51 -0.74 -33.26 4.17 -1.46 -30.00 2.76 3.09 -21.59 1.64 1.59 -26.62 2.49 0.81 -30.18 4.15 -1.05 -31.18 5.91 -0.99 -31.94 6.49 -3.25 -20.76 4.97 -0.07 -33.54 6.29 2.51 -36.13 7.65 1.78 -36.47 7.41 0.07 -33.73 4.55 -0.65 -32.44 3.25 -1.71 -27.38 2.40 2.56 -18.94 -0.11 2.07 -26.53 2.42 0.95 -30.08 3.31 0.26 -31.84 4.72 -0.16 -32.38 5.16 -0.42 -32.96 5.09 -0.32 -32.09 4.76 -3.26 -21.87 4.89 -4.37 -25.80 0.74 0.27 -34.63 5.26 2.43 -35.06 6.95 1.27 -34.55 6.15 -0.07 -32.58 3.55 -1.31 -28.84 2.55 -2.58 -21.17 0.68 1.84 -15.33 -2.58 2.89 -21.97 1.21 1.83 -30.11 3.30 1.01 -31.81 4.04 0.63 -32.31 4.25 0.62 -31.87 4.16 0.14 -31.53 4.14 -0.34 -30.97 4.17 0.93 -29.05 4.21 -3.10 -22.68 4.84 -4.17 -27.64 1.48 0.92 -34.54 4.79 1.11 -34.95 4.99 0.65 -34.68 4.21 -0.97 -28.74 2.45 -2.71 -24.89 1.19 -0.74 -19.88 -0.62 0.84 -14.61 -0.25 1.43 -17.79 -2.88 3.51 -26.14 1.92 2.35 -30.31 3.42 1.73 -31.23 3.80 1.56 -30.74 4.01 1.19 -30.45 4.14 1.23 -30.10 4.18 1.80 -29.68 3.91 2.75 -27.48 2.13 -1.23 -25.41 3.01 -3.05 -23.72 3.25 -3.67 -28.75 2.75 0.92 -34.03 4.19 1.01 -34.69 3.98 0.20 -33.94 3.63 -2.20 -27.17 1.59 -1.67 -21.99 0.65 -0.32 -17.33 -2.74 0.86 -14.76 0.71 1.81 -17.32 -0.97 2.10 -22.10 0.62 3.37 -27.16 2.12 3.27 -29.27 3.04 3.39 -30.35 3.43 3.14 -30.52 3.70 2.82 -30.49 3.72 3.13 -30.22 3.30 2.81 -28.71 2.06 2.32 -10.56 14.06 -1.27 -28.38 2.29 -2.86 -29.30 1.19 -3.02 -30.36 3.40 0.22 -33.09 4.09 0.15 -32.88 3.65 -0.70 -30.88 2.81 -2.72 -25.18 1.02 -1.15 -13.30 3.22 -0.09 -12.28 3.82 1.39 -11.87 4.05 2.85 -12.21 4.14 2.50 -14.94 2.28 1.36 -19.41 -0.64 2.27 -25.20 1.81 3.92 -28.76 2.29 4.57 -30.36 2.67 4.09 -30.88 2.88 3.73 -30.88 2.76 2.90 -30.04 1.91 1.45 -13.70 8.94 0.87 -23.33 2.14 -2.35 -31.05 2.07 -2.39 -31.77 3.50 -1.91 -32.10 3.64 -0.71 -31.65 3.16 -1.83 -29.34 1.72 -1.18 -16.00 2.40 -0.68 -11.83 4.58 0.41 -11.58 4.92 1.13 -11.44 5.05 3.55 -10.78 5.27 3.39 -12.79 4.68 3.03 -14.51 3.96 2.48 -16.24 3.27 0.37 -20.25 0.25 1.56 -27.74 2.61 3.98 -30.82 2.04 3.62 -31.31 1.69 2.32 -30.62 1.64 -1.88 -22.15 2.47 1.52 -14.18 9.42 -0.05 -22.26 4.51 -1.37 -31.04 2.67 -1.91 -31.95 2.93 -1.49 -31.71 3.02 -1.58 -30.74 2.12 -2.03 -26.22 1.18 -2.13 -13.12 4.44 0.23 -9.54 4.88 1.32 -9.73 4.91 1.92 -9.62 4.28 2.94 -9.17 3.67 4.64 -9.54 6.06 4.72 -11.94 5.92 3.30 -14.53 4.78 2.44 -16.74 4.09 1.84 -19.26 3.70 0.59 -26.88 2.25 0.78 -28.67 2.61 0.10 -27.97 2.41 -0.10 -22.92 5.13 1.55 -14.86 9.67 -1.22 -18.44 6.09 -0.66 -28.61 2.19 -2.49 -31.64 0.58 -2.78 -31.53 1.06 -2.11 -28.09 1.51 -1.45 -18.27 2.78 -1.95 -10.32 5.05 -0.44 -9.51 2.40 0.63 -9.47 2.12 0.49 -9.30 1.77 -0.36 -6.95 -1.18 2.73 -8.99 2.24 5.82 -9.71 7.85 4.59 -11.18 7.37 4.09 -14.18 6.01 2.74 -15.79 5.41 1.27 -20.75 4.50 0.06 -21.81 3.03 0.07 -22.83 4.87 0.13 -21.74 6.85 1.46 -15.37 10.11 -3.03 -17.33 7.14 0.00 -24.22 3.35 -0.08 -27.15 1.86 0.45 -25.89 2.00 -1.24 -21.14 2.91 -2.93 -14.64 4.90 -1.99 -10.30 3.18 -0.38 -8.32 -0.84 -0.32 -7.81 -1.73 -0.64 -7.61 -1.31 0.04 -3.68 2.74 0.10 -6.71 -0.29 2.62 -9.30 1.57 5.35 -10.35 8.72 4.67 -11.55 9.30 4.28 -12.94 8.94 2.67 -16.72 6.09 0.99 -20.85 5.37 0.47 -21.74 5.99 1.01 -19.07 7.16 1.34 -16.16 10.12 -2.82 -16.11 12.94 -3.33 -17.63 8.17 -0.62 -21.99 5.27 -0.56 -23.16 4.05 -0.89 -21.67 3.58 -1.81 -18.19 4.28 -4.09 -12.71 6.78 -1.58 -10.10 1.61 -0.90 -8.51 -0.92 0.12 -5.12 2.33 0.58 -3.22 3.97 0.57 -3.21 4.52 0.02 -4.02 3.10 0.96 -6.47 -1.09 2.91 -9.40 0.88 4.75 -11.27 9.77 4.99 -12.14 11.19 4.16 -14.30 9.74 2.59 -16.94 7.04 1.79 -18.09 7.17 1.94 -17.99 8.25 1.32 -16.65 10.43 -2.71 -17.14 12.61 -3.22 -18.28 8.57 -2.17 -19.61 6.27 -1.42 -20.53 5.06 -1.63 -19.27 4.66 -3.42 -16.13 5.67 -3.60 -12.89 6.64 -1.51 -9.54 -0.29 -1.20 -7.86 -0.87 -0.11 -4.68 2.78 0.99 -2.86 4.86 0.65 -2.86 4.41 0.52 -3.85 3.62 0.78 -5.01 2.20 2.33 -6.78 -0.06 3.34 -10.82 2.75 4.21 -12.06 10.48 4.64 -12.69 12.67 3.73 -14.59 11.32 2.66 -17.23 8.28 2.15 -17.88 8.93 1.38 -17.07 10.88 0.66 -16.77 12.74 -0.87 -12.39 18.53 -2.04 -18.10 11.36 -3.08 -18.87 8.59 -2.89 -19.17 7.00 -2.07 -18.61 5.78 -3.44 -16.49 7.12 -4.43 -14.26 8.42 -2.91 -12.18 4.74 -1.93 -9.09 -0.23 -1.27 -6.95 -1.28 -0.22 -4.78 3.02 1.03 -2.53 4.58 0.60 -2.43 4.44 0.39 -2.94 4.46 0.54 -3.93 3.44 3.48 -5.25 -0.10 3.57 -9.60 0.37 3.18 -11.51 2.90 4.13 -12.69 11.95 3.72 -12.71 13.44 3.13 -14.52 13.33 2.00 -17.29 10.78 1.33 -17.64 11.75 0.96 -17.15 14.03 -0.93 -11.78 17.17 -0.10 -12.26 16.35 -1.98 -18.30 11.64 -2.64 -19.32 8.38 -2.51 -19.13 7.19 -4.01 -15.88 10.05 -4.36 -15.00 9.76 -4.33 -13.39 8.89 -4.41 -10.13 0.69 -1.39 -8.78 -0.99 -1.76 -6.74 -1.00 0.07 -4.61 3.60 0.95 -2.27 4.15 0.42 -2.15 4.21 -0.12 -2.56 4.55 -0.26 -3.02 4.74 2.94 -4.64 0.79 4.16 -7.88 0.32 4.41 -10.08 1.34 2.02 -12.62 6.02 2.78 -12.63 10.91 2.50 -12.64 13.47 2.23 -13.80 15.02 1.61 -15.78 15.98 0.41 -14.91 17.71 -0.49 -10.06 13.62 0.10 -12.60 14.46 -1.96 -15.67 15.22 -2.94 -17.43 12.34 -3.64 -16.58 12.03 -3.72 -14.41 11.76 -3.35 -13.46 8.76 -3.11 -11.90 2.07 -3.42 -9.88 0.46 -2.34 -8.66 -0.88 -1.13 -5.90 1.39 0.72 -3.56 3.65 0.89 -2.02 3.44 -0.27 -2.36 4.36 -0.35 -2.48 4.28 0.47 -4.64 3.31 4.28 -6.07 0.13 5.66 -8.82 2.16 4.99 -10.55 2.41 5.34 -12.45 2.05 1.61 -13.45 7.75 2.19 -12.08 10.36 0.65 -12.34 13.63 0.16 -11.44 13.43 7.09 -5.12 2.45 -5.20 -4.19 -2.39 -1.41 -11.22 3.46 -0.89 -13.76 13.81 -2.20 -14.78 14.54 -2.49 -14.11 11.73 -1.40 -14.15 6.78 -3.99 -11.84 2.04 -4.88 -10.74 1.46 -3.24 -9.34 0.24 -0.21 -6.29 2.49 0.34 -4.96 4.18 1.10 -2.94 2.88 0.88 -2.06 3.50 -0.95 -2.03 3.84 0.17 -4.39 3.58 1.38 -5.29 2.66 5.05 -7.37 1.16 5.31 -9.30 2.58 4.90 -10.90 3.51 4.47 -11.76 3.93 4.01 -12.04 4.72 3.95 -12.55 4.72 3.39 -12.75 4.92 6.82 -6.17 3.69 -2.50 -2.18 -2.47 -3.58 -2.57 -1.56 -4.54 -4.52 -2.16 -3.24 -10.03 6.10 -0.33 -14.68 3.72 -3.01 -15.36 1.78 -6.24 -14.25 3.82 -5.11 -11.83 2.63 -3.72 -9.46 1.04 0.15 -6.77 2.25 0.89 -5.49 3.61 0.41 -4.34 4.30 1.04 -2.30 3.16 -0.32 -2.15 3.30 -0.19 -3.15 2.89 1.63 -3.95 1.54 3.70 -6.38 0.50 4.94 -7.31 0.42 4.91 -8.96 2.50 4.83 -9.90 3.76 4.77 -10.40 5.25 4.07 -9.95 5.67 3.55 -9.69 6.61 7.77 -5.20 1.00 -3.37 -2.93 -2.76 -4.69 -4.35 -0.61 -2.90 -7.92 -1.18 -3.08 -11.68 4.87 -6.85 -9.81 -3.66 -5.81 -11.33 5.40 -4.75 -10.43 2.27 -3.19 -9.25 0.49 -1.09 -7.82 0.43 0.87 -6.00 2.51 1.15 -5.04 2.97 0.59 -4.09 3.94 2.40 -2.14 -0.13 2.54 -3.59 0.44 3.72 -6.30 0.50 4.02 -6.94 0.90 4.32 -7.38 1.01 4.05 -7.72 1.48 5.21 -7.48 -0.12 6.20 -6.84 -0.08 -3.81 -6.29 -2.06 -4.61 -10.23 1.97 -4.42 -8.82 0.72 -2.33 -8.12 0.30 -1.97 -8.38 0.30 0.11 -7.15 1.19 1.07 -5.72 2.95 0.86 -5.00 3.27 0.51 -3.84 3.05 2.50 -2.82 0.18 3.11 -4.23 0.66 3.43 -5.14 0.87 4.84 -6.19 0.91 5.88 -7.05 0.23 7.16 -6.74 0.36 -1.55 -8.27 0.30 -1.67 -8.25 0.03 -0.80 -8.61 -0.20 0.06 -7.82 -0.12 0.40 -6.02 2.09 0.77 -3.54 1.90 1.00 -3.48 2.55 2.58 -4.77 0.56 5.67 -5.92 0.97 2.42 -4.48 -0.57 -2.66 -6.91 -0.19 -0.09 -7.63 -0.59 0.03 -7.36 -0.87 -0.46 -6.36 0.10 0.49 -3.04 0.09 1.35 -2.59 2.62 -1.48 -6.45 0.52 -0.38 -6.51 0.21 0.62 -4.81 -0.04 1.09 -3.00 -0.77 1.74 -3.82 -0.65 2.43 -3.31 -1.59 2.25 -2.34 -1.63 2.13 -1.32 -1.77 3.42 -1.75 -2.21 3.10 -1.25 -2.82 2.78 -0.55 -2.45 -0.26 2.23 -3.89 -1.18 2.32 -3.94 1.14 4.82 -3.00 3.73 -0.69 -3.65 3.48 -0.37 -4.24 2.56 0.13 -4.64 -1.46 2.80 -1.15 -0.87 3.93 -2.93 -0.55 5.70 -3.37 1.84 3.11 -2.22 0.66 4.15 -2.64 0.07 4.33 -2.96 2.38 1.37 -3.19 2.00 1.08 -4.04 1.55 1.27 -2.70 0.35 1.80 -3.21 1.41 2.87 -6.27 2.67 3.24 -5.91 2.58 2.49 -4.79 1.88 4.39 -4.74 0.73 6.51 -4.80 -0.54 8.87 -5.33 1.89 8.81 -4.11 0.79 8.85 -4.01 3.56 7.93 -4.16 2.70 7.93 -4.60 1.67 7.87 -4.59 0.84 4.89 -4.08 0.48 2.70 -3.61 -0.86 5.69 -4.85 -1.71 6.12 -5.36 1.54 2.04 -6.42 3.73 2.48 -6.42 3.54 1.34 -6.12 2.71 3.86 -5.75 1.61 7.87 -5.57 0.91 7.88 -5.05 -0.52 7.88 -5.21 -0.87 7.84 -5.00 0.94 7.77 -3.79 3.77 6.95 -3.37 3.04 6.93 -3.88 1.41 6.91 -6.66 0.31 6.91 -7.08 0.22 6.91 -4.80 -1.01 6.81 -4.36 -1.64 4.01 -4.44 3.69 1.16 -6.01 2.53 6.89 -5.63 1.39 6.88 -5.39 0.28 6.88 -5.31 -0.50 6.90 -5.71 -0.74 6.82 -5.06 3.04 5.93 -3.78 1.77 5.92 -5.72 0.36 5.92 -6.99 -0.64 5.91 -7.12 0.59 3.23 -1.39 3.65 5.79 -4.66 1.24 5.87 -5.18 0.32 5.89 -5.50 0.14 5.84 -4.90 1.93 5.79 -3.85 3.04 4.93 -3.68 2.08 4.92 -4.19 0.75 4.92 -5.82 0.12 4.92 -4.24 -1.31 -16.81 22.92 -1.93 -15.59 21.39 -1.30 -17.73 22.85 -2.07 -16.77 21.58 -2.45 -18.13 22.01 -3.88 -1.31 1.20 -4.19 -1.79 1.05 -4.05 -1.55 1.08 -4.20 -2.61 0.94 -0.33 -20.69 22.83 -1.24 -20.73 22.81 -1.96 -20.78 22.68 -3.82 -2.75 1.10 0.26 -16.42 13.45 0.38 -19.95 20.00 -0.29 -21.72 22.83 -1.22 -21.71 22.77 -1.75 -21.73 22.64 -2.58 -21.63 22.58 -3.33 -1.75 1.09 -3.53 -4.23 1.03 -1.79 -5.45 3.25 -2.31 -11.12 5.13 1.15 -17.05 10.96 0.23 -17.53 13.72 0.63 -21.92 21.82 -0.26 -22.70 22.79 -1.18 -22.69 22.72 -1.61 -22.85 22.79 -2.48 -22.89 22.86 -3.46 -22.83 22.81 -4.48