# vtk DataFile Version 2.0
VTK from Matlab
ASCII
DATASET STRUCTURED_GRID
DIMENSIONS 6984 1 1
POINTS 6984 float
32.00 93.00 13.00 34.00 87.00 14.00 35.00 87.00 14.00 34.00 88.00 14.00 35.00 93.00 14.00 36.00 93.00 14.00 29.00 94.00 14.00 30.00 94.00 14.00 31.00 94.00 14.00 32.00 94.00 14.00 33.00 94.00 14.00 34.00 94.00 14.00 35.00 94.00 14.00 36.00 94.00 14.00 37.00 94.00 14.00 38.00 94.00 14.00 29.00 95.00 14.00 30.00 95.00 14.00 31.00 95.00 14.00 32.00 95.00 14.00 33.00 95.00 14.00 34.00 95.00 14.00 35.00 95.00 14.00 36.00 95.00 14.00 37.00 95.00 14.00 38.00 95.00 14.00 39.00 95.00 14.00 40.00 95.00 14.00 41.00 95.00 14.00 31.00 96.00 14.00 32.00 96.00 14.00 33.00 96.00 14.00 34.00 96.00 14.00 35.00 96.00 14.00 32.00 97.00 14.00 33.00 97.00 14.00 34.00 97.00 14.00 33.00 98.00 14.00 34.00 98.00 14.00 35.00 98.00 14.00 33.00 99.00 14.00 34.00 99.00 14.00 35.00 99.00 14.00 36.00 99.00 14.00 32.00 100.00 14.00 33.00 100.00 14.00 34.00 100.00 14.00 35.00 100.00 14.00 36.00 100.00 14.00 31.00 101.00 14.00 32.00 101.00 14.00 33.00 101.00 14.00 34.00 101.00 14.00 35.00 101.00 14.00 35.00 87.00 15.00 34.00 88.00 15.00 35.00 88.00 15.00 34.00 93.00 15.00 35.00 93.00 15.00 30.00 94.00 15.00 31.00 94.00 15.00 32.00 94.00 15.00 33.00 94.00 15.00 34.00 94.00 15.00 35.00 94.00 15.00 36.00 94.00 15.00 37.00 94.00 15.00 28.00 95.00 15.00 31.00 95.00 15.00 32.00 95.00 15.00 33.00 95.00 15.00 34.00 95.00 15.00 35.00 95.00 15.00 36.00 95.00 15.00 37.00 95.00 15.00 38.00 95.00 15.00 39.00 95.00 15.00 41.00 95.00 15.00 30.00 96.00 15.00 31.00 96.00 15.00 32.00 96.00 15.00 33.00 96.00 15.00 34.00 96.00 15.00 35.00 96.00 15.00 36.00 96.00 15.00 37.00 96.00 15.00 38.00 96.00 15.00 39.00 96.00 15.00 32.00 97.00 15.00 33.00 97.00 15.00 34.00 97.00 15.00 33.00 98.00 15.00 34.00 98.00 15.00 35.00 98.00 15.00 32.00 99.00 15.00 33.00 99.00 15.00 34.00 99.00 15.00 35.00 99.00 15.00 33.00 100.00 15.00 34.00 100.00 15.00 35.00 100.00 15.00 36.00 100.00 15.00 37.00 100.00 15.00 30.00 101.00 15.00 31.00 101.00 15.00 34.00 86.00 16.00 34.00 87.00 16.00 35.00 87.00 16.00 33.00 88.00 16.00 34.00 88.00 16.00 35.00 88.00 16.00 18.00 89.00 16.00 33.00 94.00 16.00 34.00 94.00 16.00 35.00 94.00 16.00 23.00 95.00 16.00 24.00 95.00 16.00 32.00 95.00 16.00 33.00 95.00 16.00 34.00 95.00 16.00 35.00 95.00 16.00 36.00 95.00 16.00 37.00 95.00 16.00 28.00 96.00 16.00 31.00 96.00 16.00 32.00 96.00 16.00 33.00 96.00 16.00 34.00 96.00 16.00 35.00 96.00 16.00 36.00 96.00 16.00 37.00 96.00 16.00 38.00 96.00 16.00 39.00 96.00 16.00 40.00 96.00 16.00 31.00 97.00 16.00 32.00 97.00 16.00 33.00 97.00 16.00 34.00 97.00 16.00 35.00 97.00 16.00 38.00 97.00 16.00 32.00 98.00 16.00 33.00 98.00 16.00 34.00 98.00 16.00 35.00 98.00 16.00 34.00 99.00 16.00 35.00 99.00 16.00 36.00 99.00 16.00 37.00 99.00 16.00 31.00 100.00 16.00 32.00 100.00 16.00 33.00 100.00 16.00 34.00 100.00 16.00 35.00 100.00 16.00 36.00 100.00 16.00 37.00 100.00 16.00 38.00 100.00 16.00 23.00 44.00 17.00 23.00 45.00 17.00 23.00 46.00 17.00 22.00 47.00 17.00 22.00 48.00 17.00 33.00 82.00 17.00 34.00 82.00 17.00 33.00 83.00 17.00 34.00 83.00 17.00 35.00 83.00 17.00 33.00 84.00 17.00 34.00 84.00 17.00 35.00 84.00 17.00 33.00 85.00 17.00 34.00 85.00 17.00 35.00 85.00 17.00 33.00 86.00 17.00 34.00 86.00 17.00 35.00 86.00 17.00 32.00 87.00 17.00 33.00 87.00 17.00 34.00 87.00 17.00 35.00 87.00 17.00 36.00 87.00 17.00 32.00 88.00 17.00 33.00 88.00 17.00 34.00 88.00 17.00 35.00 88.00 17.00 36.00 88.00 17.00 31.00 89.00 17.00 23.00 95.00 17.00 23.00 96.00 17.00 24.00 96.00 17.00 34.00 96.00 17.00 35.00 96.00 17.00 36.00 96.00 17.00 34.00 97.00 17.00 35.00 97.00 17.00 36.00 97.00 17.00 37.00 97.00 17.00 38.00 97.00 17.00 39.00 97.00 17.00 40.00 97.00 17.00 37.00 98.00 17.00 38.00 98.00 17.00 39.00 98.00 17.00 38.00 99.00 17.00 39.00 99.00 17.00 30.00 100.00 17.00 31.00 100.00 17.00 32.00 100.00 17.00 33.00 100.00 17.00 34.00 100.00 17.00 35.00 100.00 17.00 36.00 100.00 17.00 37.00 100.00 17.00 38.00 100.00 17.00 39.00 100.00 17.00 42.00 39.00 18.00 42.00 40.00 18.00 42.00 41.00 18.00 43.00 41.00 18.00 41.00 42.00 18.00 42.00 42.00 18.00 43.00 42.00 18.00 44.00 42.00 18.00 42.00 43.00 18.00 43.00 43.00 18.00 44.00 43.00 18.00 45.00 43.00 18.00 24.00 44.00 18.00 43.00 44.00 18.00 44.00 44.00 18.00 45.00 44.00 18.00 44.00 45.00 18.00 45.00 45.00 18.00 23.00 46.00 18.00 45.00 46.00 18.00 46.00 46.00 18.00 46.00 47.00 18.00 32.00 76.00 18.00 31.00 80.00 18.00 32.00 80.00 18.00 33.00 80.00 18.00 34.00 80.00 18.00 35.00 80.00 18.00 36.00 80.00 18.00 31.00 81.00 18.00 32.00 81.00 18.00 33.00 81.00 18.00 34.00 81.00 18.00 35.00 81.00 18.00 36.00 81.00 18.00 31.00 82.00 18.00 32.00 82.00 18.00 33.00 82.00 18.00 34.00 82.00 18.00 35.00 82.00 18.00 36.00 82.00 18.00 31.00 83.00 18.00 32.00 83.00 18.00 33.00 83.00 18.00 34.00 83.00 18.00 35.00 83.00 18.00 36.00 83.00 18.00 31.00 84.00 18.00 32.00 84.00 18.00 33.00 84.00 18.00 34.00 84.00 18.00 35.00 84.00 18.00 36.00 84.00 18.00 37.00 84.00 18.00 31.00 85.00 18.00 32.00 85.00 18.00 33.00 85.00 18.00 34.00 85.00 18.00 35.00 85.00 18.00 36.00 85.00 18.00 37.00 85.00 18.00 31.00 86.00 18.00 32.00 86.00 18.00 33.00 86.00 18.00 34.00 86.00 18.00 35.00 86.00 18.00 36.00 86.00 18.00 37.00 86.00 18.00 30.00 87.00 18.00 31.00 87.00 18.00 32.00 87.00 18.00 33.00 87.00 18.00 34.00 87.00 18.00 35.00 87.00 18.00 36.00 87.00 18.00 37.00 87.00 18.00 29.00 88.00 18.00 30.00 88.00 18.00 31.00 88.00 18.00 32.00 88.00 18.00 33.00 88.00 18.00 36.00 88.00 18.00 37.00 88.00 18.00 38.00 88.00 18.00 29.00 89.00 18.00 30.00 89.00 18.00 23.00 95.00 18.00 23.00 96.00 18.00 40.00 98.00 18.00 38.00 99.00 18.00 39.00 99.00 18.00 40.00 99.00 18.00 29.00 100.00 18.00 30.00 100.00 18.00 31.00 100.00 18.00 32.00 100.00 18.00 33.00 100.00 18.00 34.00 100.00 18.00 35.00 100.00 18.00 36.00 100.00 18.00 37.00 100.00 18.00 38.00 100.00 18.00 39.00 100.00 18.00 40.00 100.00 18.00 26.00 38.00 19.00 42.00 38.00 19.00 26.00 39.00 19.00 41.00 39.00 19.00 42.00 39.00 19.00 41.00 40.00 19.00 42.00 40.00 19.00 41.00 41.00 19.00 42.00 41.00 19.00 41.00 42.00 19.00 42.00 42.00 19.00 42.00 43.00 19.00 43.00 43.00 19.00 43.00 44.00 19.00 44.00 44.00 19.00 43.00 45.00 19.00 44.00 45.00 19.00 44.00 46.00 19.00 45.00 47.00 19.00 33.00 74.00 19.00 31.00 75.00 19.00 32.00 75.00 19.00 33.00 75.00 19.00 34.00 75.00 19.00 35.00 75.00 19.00 29.00 76.00 19.00 30.00 76.00 19.00 33.00 76.00 19.00 38.00 76.00 19.00 28.00 77.00 19.00 31.00 77.00 19.00 32.00 77.00 19.00 33.00 77.00 19.00 34.00 77.00 19.00 35.00 77.00 19.00 36.00 77.00 19.00 39.00 77.00 19.00 28.00 78.00 19.00 30.00 78.00 19.00 31.00 78.00 19.00 32.00 78.00 19.00 33.00 78.00 19.00 34.00 78.00 19.00 35.00 78.00 19.00 36.00 78.00 19.00 37.00 78.00 19.00 30.00 79.00 19.00 31.00 79.00 19.00 32.00 79.00 19.00 33.00 79.00 19.00 34.00 79.00 19.00 35.00 79.00 19.00 36.00 79.00 19.00 37.00 79.00 19.00 38.00 79.00 19.00 30.00 80.00 19.00 31.00 80.00 19.00 32.00 80.00 19.00 33.00 80.00 19.00 34.00 80.00 19.00 35.00 80.00 19.00 36.00 80.00 19.00 37.00 80.00 19.00 38.00 80.00 19.00 29.00 81.00 19.00 30.00 81.00 19.00 31.00 81.00 19.00 32.00 81.00 19.00 33.00 81.00 19.00 34.00 81.00 19.00 35.00 81.00 19.00 36.00 81.00 19.00 37.00 81.00 19.00 38.00 81.00 19.00 29.00 82.00 19.00 30.00 82.00 19.00 31.00 82.00 19.00 32.00 82.00 19.00 33.00 82.00 19.00 34.00 82.00 19.00 35.00 82.00 19.00 36.00 82.00 19.00 37.00 82.00 19.00 38.00 82.00 19.00 29.00 83.00 19.00 30.00 83.00 19.00 31.00 83.00 19.00 32.00 83.00 19.00 33.00 83.00 19.00 34.00 83.00 19.00 35.00 83.00 19.00 36.00 83.00 19.00 37.00 83.00 19.00 38.00 83.00 19.00 29.00 84.00 19.00 30.00 84.00 19.00 31.00 84.00 19.00 32.00 84.00 19.00 33.00 84.00 19.00 34.00 84.00 19.00 35.00 84.00 19.00 36.00 84.00 19.00 37.00 84.00 19.00 38.00 84.00 19.00 39.00 84.00 19.00 28.00 85.00 19.00 29.00 85.00 19.00 30.00 85.00 19.00 31.00 85.00 19.00 32.00 85.00 19.00 33.00 85.00 19.00 34.00 85.00 19.00 35.00 85.00 19.00 36.00 85.00 19.00 37.00 85.00 19.00 38.00 85.00 19.00 39.00 85.00 19.00 28.00 86.00 19.00 29.00 86.00 19.00 30.00 86.00 19.00 31.00 86.00 19.00 32.00 86.00 19.00 33.00 86.00 19.00 36.00 86.00 19.00 37.00 86.00 19.00 38.00 86.00 19.00 39.00 86.00 19.00 28.00 87.00 19.00 29.00 87.00 19.00 30.00 87.00 19.00 31.00 87.00 19.00 38.00 87.00 19.00 39.00 87.00 19.00 26.00 88.00 19.00 28.00 88.00 19.00 29.00 88.00 19.00 21.00 94.00 19.00 23.00 95.00 19.00 46.00 95.00 19.00 22.00 96.00 19.00 23.00 96.00 19.00 40.00 98.00 19.00 38.00 99.00 19.00 39.00 99.00 19.00 29.00 100.00 19.00 30.00 100.00 19.00 31.00 100.00 19.00 32.00 100.00 19.00 42.00 37.00 20.00 41.00 39.00 20.00 41.00 40.00 20.00 41.00 41.00 20.00 22.00 62.00 20.00 33.00 73.00 20.00 31.00 74.00 20.00 32.00 74.00 20.00 33.00 74.00 20.00 34.00 74.00 20.00 35.00 74.00 20.00 29.00 75.00 20.00 30.00 75.00 20.00 32.00 75.00 20.00 33.00 75.00 20.00 34.00 75.00 20.00 36.00 75.00 20.00 37.00 75.00 20.00 28.00 76.00 20.00 30.00 76.00 20.00 31.00 76.00 20.00 32.00 76.00 20.00 33.00 76.00 20.00 34.00 76.00 20.00 35.00 76.00 20.00 36.00 76.00 20.00 27.00 77.00 20.00 29.00 77.00 20.00 30.00 77.00 20.00 31.00 77.00 20.00 32.00 77.00 20.00 33.00 77.00 20.00 34.00 77.00 20.00 35.00 77.00 20.00 36.00 77.00 20.00 37.00 77.00 20.00 38.00 77.00 20.00 25.00 78.00 20.00 26.00 78.00 20.00 28.00 78.00 20.00 29.00 78.00 20.00 30.00 78.00 20.00 31.00 78.00 20.00 32.00 78.00 20.00 33.00 78.00 20.00 34.00 78.00 20.00 35.00 78.00 20.00 36.00 78.00 20.00 37.00 78.00 20.00 38.00 78.00 20.00 39.00 78.00 20.00 25.00 79.00 20.00 28.00 79.00 20.00 29.00 79.00 20.00 30.00 79.00 20.00 31.00 79.00 20.00 32.00 79.00 20.00 33.00 79.00 20.00 34.00 79.00 20.00 35.00 79.00 20.00 36.00 79.00 20.00 37.00 79.00 20.00 38.00 79.00 20.00 39.00 79.00 20.00 25.00 80.00 20.00 28.00 80.00 20.00 29.00 80.00 20.00 30.00 80.00 20.00 31.00 80.00 20.00 32.00 80.00 20.00 33.00 80.00 20.00 34.00 80.00 20.00 35.00 80.00 20.00 36.00 80.00 20.00 37.00 80.00 20.00 38.00 80.00 20.00 39.00 80.00 20.00 40.00 80.00 20.00 28.00 81.00 20.00 29.00 81.00 20.00 30.00 81.0
[...]
POINT_DATA 6984
VECTORS vector_field float
2.27 1.83 -1.07 0.86 -3.09 0.71 -0.07 -1.79 3.28 0.71 -2.84 1.43 0.51 5.32 -1.42 1.84 3.75 -0.98 3.90 -0.11 -2.56 3.55 1.42 -2.70 3.49 2.25 -4.23 2.61 2.71 -4.24 0.73 4.67 -1.38 0.42 5.08 -2.71 0.73 4.87 -2.60 1.12 3.99 -2.54 1.83 3.42 -1.80 1.51 3.25 -2.00 2.80 0.95 -4.01 3.20 1.15 -4.09 -0.43 2.27 -2.18 -0.97 4.00 -2.06 -0.10 4.37 -3.22 0.45 4.58 -3.75 0.75 5.05 -3.72 0.78 4.71 -3.71 2.05 5.15 -3.71 2.12 4.24 -3.12 1.21 2.95 -2.85 -0.04 2.83 -1.68 0.53 3.15 -2.63 -1.20 6.14 -2.96 -0.12 4.41 -3.59 1.17 2.50 -4.37 1.00 1.92 -4.35 0.43 3.66 -4.60 -0.17 3.74 -4.52 0.41 2.89 -5.69 0.50 2.96 -5.75 -0.21 3.37 -5.25 0.30 2.96 -5.56 0.52 3.19 -5.14 0.23 3.16 -4.93 0.22 2.73 -4.84 0.43 2.65 -4.75 4.07 2.59 -5.34 -0.94 3.57 -4.55 0.15 3.14 -3.92 0.19 5.47 -3.03 0.02 5.07 -3.47 1.74 2.39 -4.48 -0.05 4.75 -3.45 0.51 4.89 -0.77 0.34 4.89 -0.92 0.63 4.92 -0.85 0.31 4.91 -1.71 -0.47 -1.78 4.05 0.19 -2.10 3.54 -0.27 -1.65 3.59 1.58 2.37 -2.17 1.19 2.77 -2.13 2.57 -0.53 -2.55 3.17 0.88 -2.65 2.41 1.42 -1.71 0.83 4.61 -1.18 0.95 4.40 -1.66 0.94 4.10 -1.43 1.11 3.97 -1.58 0.99 3.67 -1.44 2.72 -0.67 -2.92 1.21 2.79 0.01 -0.99 3.45 -2.70 -0.37 4.14 -3.12 0.60 4.40 -4.01 0.68 4.27 -3.98 1.16 3.99 -3.66 1.27 4.41 -3.79 1.21 4.27 -3.38 0.37 3.72 -2.59 0.94 3.04 -3.43 0.40 3.04 -2.65 -0.78 3.96 -3.03 -0.44 4.59 -4.02 0.04 3.53 -4.64 0.24 3.45 -4.94 0.54 4.39 -4.71 1.23 3.84 -4.80 2.25 3.98 -4.35 2.26 3.37 -3.82 2.20 3.53 -3.80 -0.72 3.96 -4.82 1.15 1.69 -5.44 1.11 0.99 -5.65 0.47 1.74 -6.79 0.56 1.90 -6.35 0.14 2.41 -6.21 -0.64 3.56 -5.28 0.55 1.19 -6.55 0.44 1.42 -6.47 0.28 1.98 -5.91 0.36 5.02 -1.30 0.13 5.15 -1.56 -0.03 4.62 -2.11 0.23 4.42 -1.73 3.24 2.04 -5.24 -1.35 4.92 -5.60 0.97 4.84 -1.63 0.24 -2.08 3.97 0.15 -1.90 3.65 -0.55 -2.04 3.98 0.84 -1.92 3.46 0.21 -1.80 3.23 -0.46 -1.71 3.58 -3.22 3.18 1.20 1.37 3.50 -1.61 1.43 2.42 -2.45 1.33 2.22 -2.28 3.73 1.97 -1.60 3.31 -1.75 -1.97 0.44 3.60 -0.70 -0.48 3.94 -3.29 0.59 4.06 -3.34 0.98 3.77 -2.41 1.17 3.89 -3.28 1.06 3.61 -4.18 1.86 0.72 -4.33 -0.47 2.47 -3.50 -1.21 3.31 -3.93 -0.46 3.62 -4.56 0.19 3.68 -5.57 0.54 3.78 -5.54 0.84 3.58 -5.20 1.33 3.55 -4.71 1.31 3.38 -4.23 0.78 3.18 -3.64 -0.64 2.64 -2.08 -1.15 4.28 -4.44 -1.08 3.78 -4.84 -0.11 3.19 -5.69 0.64 2.25 -6.25 0.26 3.12 -6.10 2.81 2.90 -5.08 -0.85 3.23 -5.21 0.19 2.20 -6.21 0.99 1.18 -6.52 0.15 1.91 -6.54 -0.18 3.53 -2.52 -0.54 2.57 -5.23 0.91 2.17 -6.05 4.04 2.06 -6.70 0.73 3.73 -0.95 0.35 5.57 -1.91 0.58 4.57 -0.57 0.27 3.62 -1.10 0.27 3.92 -0.57 0.69 4.45 -0.48 1.17 5.60 -1.77 1.12 5.62 -1.93 -3.08 -1.09 1.29 -3.22 -1.38 1.11 -3.26 -1.09 1.43 -2.37 -1.78 1.23 -2.59 -2.15 0.42 0.37 -2.29 5.02 0.60 -2.65 5.11 0.67 -1.87 4.29 0.70 -2.33 4.82 1.07 -2.35 5.18 0.79 -2.12 4.29 0.67 -2.21 4.64 0.85 -1.94 4.79 0.90 -2.28 4.17 0.64 -2.05 4.71 0.95 -2.08 4.68 0.83 -2.42 4.15 0.46 -1.62 4.50 0.75 -1.80 4.38 0.75 -2.01 3.71 0.62 -2.01 4.19 0.42 -1.12 4.28 0.41 -1.29 3.97 -0.02 -2.15 3.47 0.67 -1.46 3.38 0.47 -1.64 3.75 0.02 -0.89 3.64 -0.05 -1.08 3.18 -0.39 -1.73 3.13 0.80 -1.64 2.43 1.92 -4.29 -0.76 0.43 2.58 -2.22 3.65 0.01 -3.37 -0.29 3.54 -5.68 0.14 3.25 -5.54 0.92 3.21 -5.19 -0.06 2.63 -6.71 0.46 3.24 -6.62 0.93 2.62 -6.17 1.32 2.47 -5.49 0.78 2.09 -4.01 0.07 2.50 -1.90 0.09 3.15 -2.32 1.26 1.96 -5.36 0.73 2.70 -1.59 0.63 2.68 -1.64 0.71 2.74 -1.82 0.82 2.51 -1.73 1.34 4.23 -1.35 1.01 3.83 -1.27 0.68 4.50 -1.14 0.40 4.13 -1.00 0.25 3.91 -0.95 -0.03 4.68 -0.46 0.69 3.57 -0.58 1.07 3.94 -0.91 0.93 5.23 -1.01 1.72 5.76 -2.14 2.86 0.99 1.75 3.29 0.55 2.01 3.47 -0.24 2.17 2.78 -0.11 2.33 3.16 -1.16 -0.04 3.53 -1.01 2.06 2.82 -0.93 2.38 2.90 0.04 2.60 3.32 -1.61 1.65 3.56 -1.05 2.30 2.97 -0.73 2.45 2.23 -0.54 2.59 -2.82 -1.79 0.82 3.91 -1.55 2.23 3.09 -1.42 2.34 2.13 -1.34 2.50 3.64 -1.46 2.18 2.57 -1.54 2.38 -3.29 -1.48 0.57 2.89 -1.81 2.16 2.15 -1.52 2.18 2.67 -1.84 1.87 -2.41 -4.93 0.45 0.86 -1.56 4.75 0.60 -1.48 4.79 0.24 -1.49 4.80 0.12 -1.59 4.62 0.31 -1.51 4.54 0.04 -1.50 4.58 0.62 -1.75 4.69 0.48 -1.55 4.67 0.38 -1.81 4.65 0.22 -1.93 4.59 0.27 -1.91 4.61 0.09 -1.95 4.60 0.25 -2.04 4.49 0.24 -1.69 4.53 0.35 -2.02 4.50 0.31 -2.12 4.52 0.27 -2.23 4.62 0.21 -2.14 4.57 0.04 -2.21 4.19 0.26 -1.77 4.33 0.45 -1.65 4.24 0.36 -1.86 4.19 0.32 -2.20 4.41 0.24 -2.14 4.45 0.25 -2.04 4.09 0.33 -1.95 4.21 0.29 -1.54 4.20 0.25 -1.61 4.17 0.20 -1.77 4.23 0.25 -1.86 4.23 0.09 -2.20 3.86 0.31 -1.95 3.85 0.46 -2.04 4.07 0.36 -1.53 4.09 0.30 -1.63 4.07 0.07 -1.70 4.05 0.20 -1.85 3.96 0.35 -2.17 3.20 0.40 -1.76 3.66 0.45 -1.67 3.92 0.27 -1.01 3.82 0.28 -1.15 3.79 0.10 -1.21 3.72 0.05 -1.78 3.64 0.49 -2.30 3.08 0.66 -1.70 3.46 0.46 -1.74 3.49 0.52 -1.39 3.60 0.23 -0.97 3.47 0.21 -1.08 3.51 0.03 -0.92 3.60 -0.13 -1.42 3.38 0.04 -1.99 3.01 0.73 -1.80 3.44 1.25 -1.08 3.19 0.93 -1.38 3.23 0.67 -1.11 3.21 0.34 -0.92 3.10 -0.39 -1.06 3.01 -0.28 -1.60 2.72 -0.25 -2.06 2.90 1.58 -0.22 2.69 1.54 -0.19 2.58 1.06 -4.49 -1.27 3.52 2.37 -3.22 -0.15 2.94 -2.16 0.51 2.39 -2.33 0.02 2.64 -2.10 1.38 4.20 -3.95 -0.08 5.98 -4.27 1.35 3.08 -1.94 1.02 2.93 -2.00 0.57 3.01 -1.96 0.25 2.84 -1.89 0.37 2.91 -1.80 0.07 5.60 -1.21 0.54 5.62 -1.05 0.67 5.87 -0.90 0.67 5.82 -1.22 0.58 5.79 -1.66 0.87 5.81 -2.89 -3.11 -0.62 0.95 1.58 -1.16 2.93 -3.22 -0.96 0.65 3.04 0.36 1.20 2.77 0.60 1.72 3.18 -0.24 0.69 2.93 -0.01 1.36 3.46 -0.43 0.12 3.02 -0.56 1.63 3.51 -0.90 1.34 3.41 -0.47 1.65 3.15 -0.79 1.85 3.75 -0.77 1.61 3.66 -1.54 1.56 2.95 -1.41 1.62 4.00 -2.10 1.43 3.19 -1.95 1.48 3.41 -2.18 1.40 2.53 -1.54 1.64 0.57 -2.13 5.27 0.71 0.48 4.23 0.42 0.78 4.23 0.17 0.91 4.46 0.19 0.52 4.72 0.19 0.28 4.57 0.59 -0.79 3.20 0.79 0.30 3.90 0.13 0.66 4.39 -0.79 0.08 4.46 1.16 -0.88 3.48 0.77 0.28 4.04 0.53 0.33 4.29 0.13 0.28 4.35 -0.04 0.21 4.34 -0.07 0.28 4.35 -0.11 0.29 4.37 -0.95 -0.17 4.40 1.78 0.24 4.44 0.98 -0.15 4.39 0.88 -0.16 4.47 0.56 -0.16 4.28 0.17 -0.22 4.28 0.05 -0.32 4.26 -0.01 -0.22 4.23 -0.29 -0.16 4.29 -0.57 -0.32 4.29 1.19 -0.57 4.37 0.92 -0.57 4.37 0.50 -0.56 4.32 0.13 -0.64 4.25 0.01 -0.83 4.18 0.07 -0.76 4.14 -0.24 -0.71 4.21 -0.56 -0.81 4.19 -0.94 -0.85 4.31 1.18 -0.94 4.23 0.82 -0.93 4.22 0.57 -1.01 4.11 0.21 -1.12 4.06 0.03 -1.27 3.99 0.01 -1.28 4.01 -0.33 -1.23 4.14 -0.60 -1.28 4.19 -0.81 -1.31 4.02 1.20 -1.06 4.36 1.01 -1.35 4.27 0.69 -1.37 4.10 0.39 -1.43 3.99 0.19 -1.56 3.88 0.11 -1.66 3.81 0.04 -1.67 3.94 -0.24 -1.66 4.10 -0.48 -1.67 4.09 -0.64 -1.75 3.96 1.05 -1.59 4.14 0.78 -1.62 4.17 0.53 -1.69 3.98 0.14 -1.61 3.88 -0.01 -1.67 3.70 0.14 -1.79 3.65 0.17 -1.92 3.90 -0.09 -1.94 4.06 -0.34 -1.95 4.03 -0.62 -2.00 4.00 0.85 -1.82 3.97 0.70 -1.74 3.91 0.58 -1.72 3.77 0.32 -1.57 3.77 0.03 -1.60 3.62 -0.22 -1.49 3.44 0.10 -1.54 3.61 0.02 -1.70 3.85 -0.16 -1.90 3.88 -0.40 -2.02 3.90 0.92 -1.94 3.89 0.83 -1.58 3.78 0.71 -1.68 3.72 0.53 -1.58 3.64 0.11 -1.54 3.55 -0.08 -1.40 3.36 -0.13 -1.59 3.44 -0.17 -1.73 3.60 -0.30 -1.78 3.47 -0.57 -1.83 3.42 -0.42 -1.85 3.15 0.82 -1.94 3.87 1.08 -1.89 3.77 0.85 -1.59 3.75 0.78 -1.67 3.55 0.56 -1.74 3.47 0.22 -1.58 3.36 0.02 -1.40 3.25 -0.24 -1.63 3.27 -0.34 -1.85 3.40 -0.41 -1.86 3.29 -0.66 -1.81 2.98 -0.35 -1.86 2.89 1.06 -1.63 3.69 1.36 -1.69 3.45 1.08 -1.50 3.28 0.89 -1.47 3.29 0.72 -1.40 3.24 0.41 -1.11 3.12 -0.36 -1.23 3.09 -0.52 -1.69 2.97 -0.66 -1.88 2.77 -0.44 -2.01 2.74 1.25 -1.34 3.24 1.70 -1.41 2.93 1.47 -1.29 2.90 1.16 -1.21 2.88 -0.87 -1.78 2.52 -0.61 -2.14 2.53 2.38 -1.87 3.32 1.73 -0.69 2.61 1.62 -0.98 2.53 -5.90 -8.32 -1.62 -0.14 -4.41 -1.83 -0.76 -1.94 -2.25 0.41 6.11 1.36 3.59 1.16 -4.31 -0.36 2.07 -2.37 0.35 2.11 -2.70 0.04 2.11 -2.50 0.40 5.97 -3.93 1.11 2.99 -2.52 0.98 2.55 -2.74 0.52 2.37 -2.69 2.59 1.78 1.67 2.78 -0.48 1.46 3.15 -0.34 0.64 2.97 -0.53 1.13 -3.24 -1.37 -0.74 0.66 0.23 5.55 0.63 0.60 4.04 0.58 1.05 4.12 0.29 1.32 4.08 0.22 1.05 4.23 1.12 -1.05 3.80 0.98 0.97 3.68 0.73 0.93 3.58 0.63 1.42 3.94 0.26 1.28 4.02 0.07 1.17 4.15 0.03 0.98 4.22 -0.28 0.76 4.19 1.72 0.59 3.99 0.96 1.16 3.68 0.64 1.12 3.66 0.55 1.04 3.77 0.18 0.98 3.80 0.11 0.86 3.91 -0.03 0.93 4.00 -0.05 0.76 4.14 2.28 0.14 3.79 1.46 0.66 3.82 0.96 0.78 3.83 0.67 0.72 3.72 0.35 0.67 3.62 0.05 0.65 3.60 -0.01 0.55 3.59 -0.01 0.64 3.64 -0.07 0.58 3.81 -0.31 0.38 3.90 -0.72 0.13 3.97 -5.64 -1.85 3.31 2.11 0.13 3.45 1.99 0.03 3.97 1.63 0.04 3.83 1.10 0.13 3.72 0.76 0.11 3.64 0.42 0.23 3.51 0.08 0.14 3.47 0.06 -0.05 3.44 0.07 0.04 3.49 -0.18 -0.03 3.69 -0.52 -0.06 3.75 -0.67 -0.35 3.90 -0.72 -0.26 3.83 -7.16 -2.56 1.38 1.70 -0.18 3.88 1.57 -0.31 3.73 1.10 -0.28 3.63 0.77 -0.34 3.50 0.38 -0.30 3.41 -0.05 -0.33 3.34 -0.11 -0.54 3.29 0.03 -0.55 3.37 -0.18 -0.53 3.59 -0.45 -0.52 3.73 -0.81 -0.81 3.83 -0.83 -0.59 3.75 -2.46 -3.56 1.36 1.50 -0.67 4.06 1.39 -0.63 3.79 0.99 -0.70 3.63 0.66 -0.78 3.42 0.42 -0.80 3.22 0.13 -0.79 3.06 -0.03 -0.99 3.01 -0.10 -1.09 3.15 -0.25 -0.99 3.44 -0.40 -0.93 3.63 -0.68 -0.99 3.69 -0.78 -0.89 3.70 -0.37 -0.99 3.91 1.45 -1.05 3.98 1.26 -1.07 3.77 0.78 -1.17 3.62 0.52 -1.21 3.35 0.20 -1.13 3.08 -0.05 -1.16 2.89 0.00 -1.52 3.08 -0.17 -1.47 3.34 -0.28 -1.48 3.46 -0.60 -1.48 3.51 -0.74 -1.39 3.68 -0.60 -1.42 3.80 1.30 -1.43 3.67 1.07 -1.44 3.62 0.68 -1.43 3.46 0.51 -1.43 3.16 0.29 -1.28 2.88 0.09 -1.60 3.25 -0.17 -1.64 3.34 -0.54 -1.75 3.45 -0.81 -1.74 3.57 -0.74 -1.71 3.67 1.14 -1.76 3.55 1.19 -1.68 3.54 0.93 -1.64 3.45 0.69 -1.35 3.35 0.67 -1.15 3.11 -0.26 -1.26 3.02 -0.47 -1.84 3.23 -0.81 -1.86 3.33 -0.97 -1.86 3.33 0.80 -1.75 3.75 1.07 -1.62 3.47 0.90 -1.78 3.33 0.74 -1.41 3.14 -0.66 -1.70 2.77 -1.03 -1.74 2.76 -1.00 -1.88 2.88 0.69 -1.79 3.62 1.04 -1.51 3.24 1.11 -1.94 3.14 0.80 -1.48 2.93 -1.22 -1.73 2.33 -1.31 -1.88 2.35 0.96 -1.88 3.41 1.17 -1.60 3.05 1.39 -1.86 2.79 -1.31 -2.08 2.09 1.49 -1.63 2.96 1.85 -1.57 2.67 -6.04 -7.76 -1.98 -3.47 -7.03 -4.07 -0.44 -2.01 -2.99 5.98 1.65 1.64 -0.62 3.76 -1.51 2.94 2.32 -1.05 0.12 6.84 -3.18 0.77 6.00 -3.51 1.95 5.68 -2.30 0.96 2.47 -2.95 -2.52 -1.98 0.54 0.62 -1.85 -2.57 -2.87 -1.92 0.28 -2.78 -1.19 -0.16 -3.02 -2.25 -0.18 3.14 -1.46 0.96 -2.83 -0.95 -0.67 3.09 -2.54 2.11 3.52 0.43 -0.73 -2.27 -12.99 -2.55 -2.67 -8.38 -0.92 0.69 0.01 5.09 0.57 -1.42 5.37 -1.53 -0.25 4.26 0.81 0.58 3.42 0.71 1.14 3.49 0.50 1.61 3.45 0.19 1.65 3.49 -0.10 1.53 3.50 -0.23 1.23 3.78 -0.17 0.82 3.74 0.59 0.30 3.37 0.89 1.75 3.20 0.82 1.76 3.22 0.60 1.59 3.33 0.20 1.48 3.32 0.01 1.35 3.40 -0.10 1.42 3.41 0.09 1.21 3.59 1.58 1.48 3.20 1.07 1.47 3.21 0.73 1.32 3.16 0.56 1.13 3.11 0.17 1.03 3.08 0.11 0.95 3.13 0.05 1.00 3.22 -0.01 0.86 3.40 -0.27 0.79 3.55 -0.58 0.55 3.63 2.39 0.79 3.58 2.02 0.78 3.30 1.54 0.81 3.21 0.96 0.83 3.15 0.09 0.39 3.38 -0.29 0.15 3.53 -0.51 0.12 3.61 2.15 1.23 3.44 2.07 0.69 3.58 1.81 0.52 3.23 1.44 0.39 3.06 -0.51 -0.23 3.15 -0.25 0.01 3.29 -0.55 0.04 3.29 1.81 0.84 3.37 1.94 0.25 3.53 1.68 0.02 3.18 1.39 -0.03 3.00 -0.44 -0.47 2.98 -0.42 -0.33 3.04 -0.54 -0.44 3.15 -0.63 -0.55 3.36 1.53 0.43 3.18 1.73 -0.14 3.30 1.43 -0.36 3.26 1.25 -0.46 3.01 -0.27 -0.83 2.90 -0.39 -0.82 2.99 -0.37 -1.02 3.14 -0.50 -1.01 3.26 1.11 0.19 3.17 1.42 -0.59 3.07 1.17 -0.74 3.11 1.10 -0.88 2.95 -0.63 -1.30 2.89 -0.59 -1.39 2.97 -0.56 -1.46 3.06 1.20 -0.36 3.27 1.20 -1.07 2.88 1.03 -1.14 2.82 -0.75 -1.58 2.84 -0.72 -1.72 2.91 0.67 -0.71 3.44 0.85 -1.06 3.00 1.03 -1.29 2.78 -0.93 -1.99 2.79 0.20 -1.22 3.53 -0.23 -1.28 3.27 0.46 -1.41 2.84 -1.03 -2.11 2.52 0.46 -1.72 3.28 0.17 -1.61 2.93 -9.15 -3.37 -1.75 1.95 -1.03 2.87 0.94 -1.71 3.06 0.61 -1.50 2.65 -1.31 -2.47 1.79 -8.94 -4.06 -1.84 2.18 -1.15 2.31 1.43 -1.28 2.58 -7.96 -5.06 -1.64 2.20 -1.02 1.97 -3.63 -3.59 -1.55 -1.75 1.85 -3.21 -0.31 4.16 -1.20 -4.86 -7.19 -5.10 -2.30 -2.59 -2.91 -0.25 -1.71 -3.81 -0.28 4.97 0.06 3.23 1.73 -1.61 -0.19 3.09 0.98 2.26 5.61 -2.98 1.75 5.66 -2.94 2.46 -1.18 2.08 -2.68 -1.84 1.88 -2.85 -2.12 1.34 -2.99 -1.64 0.07 -2.99 -2.68 0.52 -3.37 -1.65 -0.12 -3.53 -2.82 -0.31 3.32 0.09 -0.06 -3.27 -1.12 -0.15 -3.80 -1.44 -0.40 -4.09 -2.53 -0.64 3.68 0.21 -0.97 5.26 -0.11 -1.38 -3.73 -8.20 -1.17 -3.20 -6.21 -0.97 0.83 0.15 4.10 0.60 1.40 3.54 0.09 -1.20 4.90 0.99 1.27 3.26 0.96 1.07 2.96 0.69 1.45 2.76 0.57 1.79 2.92 0.36 1.82 2.94 -0.08 1.68 2.96 -0.01 1.56 3.14 -0.29 1.46 3.10 -0.24 1.58 3.11 -0.24 1.30 3.11 1.39 1.91 2.74 0.86 1.87 2.61 2.10 1.72 2.65 1.47 1.65 2.51 2.40 2.38 2.75 2.30 1.87 2.68 2.01 1.45 2.86 1.84 1.21 2.53 1.96 2.43 3.05 2.19 1.56 2.75 2.00 1.06 2.79 2.38 1.96 2.89 1.74 1.74 3.03 1.73 1.17 2.66 1.75 0.80 2.76 1.42 0.38 2.64 1.81 -1.68 2.32 0.84 -1.26 2.92 -0.70 -2.27 1.93 -10.41 -4.75 0.20 2.04 -1.23 2.35 0.93 -1.69 2.76 -0.94 -2.40 1.70 2.61 -1.30 1.95 2.52 -1.67 1.59 1.96 -1.69 1.96 2.92 -0.99 1.17 2.98 -1.26 0.88 2.85 -1.67 0.60 -0.27 2.92 -2.13 -1.70 -1.12 -3.24 -1.61 3.56 -0.19 0.12 3.05 -2.82 0.44 0.54 -3.18 0.71 4.36 -2.53 1.97 5.67 -3.89 3.73 3.57 2.13 2.01 -0.03 3.08 2.72 1.98 1.65 0.20 -2.14 2.27 -2.52 -2.07 1.89 0.01 -2.76 2.45 0.16 -2.67 2.47 2.65 -0.89 1.95 -2.94 -2.05 1.42 -2.94 -2.86 1.65 2.77 -1.56 2.01 -3.14 -1.98 0.88 -3.17 -2.65 0.84 -1.77 -4.67 -6.01 3.23 -1.95 1.81 3.25 -0.78 1.21 -3.08 -1.54 0.45 -3.54 -2.06 0.29 -3.72 -3.12 0.42 3.40 -2.59 1.75 3.49 -0.99 1.06 -3.49 -1.74 0.30 -4.12 -2.12 0.19 -4.42 -2.87 -0.09 3.63 -1.81 1.68 -3.88 -1.61 0.20 -4.56 -2.36 0.16 -4.91 -2.89 -0.33 4.18 -1.19 1.48 3.49 -0.57 0.76 -3.48 -0.73 -0.14 -4.19 -1.25 0.08 -3.77 -0.52 -0.77 -4.48 -0.91 -0.48 -4.80 -1.28 -1.03 -3.85 -0.71 -0.78 -4.67 -0.83 -0.80 -5.32 -1.44 -0.71 -3.10 -0.58 -0.46 -3.85 -0.93 -0.50 -4.71 -1.10 -0.56 -5.41 -2.07 0.49 1.66 2.97 -1.81 -3.50 -0.07 -0.06 -4.27 -0.91 0.03 -4.87 -1.29 -0.24 -1.29 -8.94 -4.28 -6.89 -0.34 10.22 0.91 0.23 2.95 0.88 1.98 2.39 -0.11 0.38 3.80 -0.33 0.77 3.54 -0.12 1.04 2.94 2.04 1.81 1.85 1.92 1.66 2.20 1.97 3.17 2.11 1.72 2.35 1.91 1.92 1.65 2.26 1.88 2.61 2.28 1.74 1.91 2.11 2.49 1.99 2.26 1.75 1.81 2.24 2.41 1.08 2.17 -1.54 -1.90 10.33 -3.71 -3.73 -2.09 -8.20 -3.71 -3.84 2.49 -1.98 1.10 2.78 -1.36 0.64 3.21 -0.74 -0.08 -3.32 -2.50 -2.73 -2.42 2.05 -0.70 -2.47 -1.74 -3.95 -1.94 -1.19 -2.91 -1.17 3.42 -0.33 -1.20 3.11 -0.24 -0.34 2.48 -2.84 0.54 -0.17 -3.30 0.25 1.17 -3.37 -1.07 3.26 -2.98 0.72 4.80 -2.83 -0.50 3.73 -1.94 2.06 5.51 -4.66 -0.17 -1.72 2.92 2.45 -1.05 1.91 0.23 -2.25 2.30 0.07 -2.26 2.22 0.16 -2.27 2.23 0.15 -2.09 2.37 -0.06 -2.22 2.72 2.68 -1.30 1.84 -2.23 -2.44 1.40 -0.57 -2.25 2.19 -0.09 -2.56 2.47 0.25 -2.51 2.57 0.19 -2.51 2.64 2.95 -1.91 1.53 3.21 -1.07 1.57 -2.96 -1.98 0.68 -3.38 -2.39 0.61 -3.29 -3.31 0.70 3.66 -2.29 1.37 3.64 -1.46 1.61 3.36 -1.05 0.96 -3.05 -1.88 0.67 -3.63 -2.24 0.55 -4.02 -2.77 0.46 -3.88 -3.67 0.54 -1.51 -6.40 -6.83 3.67 -2.01 1.95 3.74 -1.28 0.99 -3.39 -2.22 0.75 -4.06 -2.65 0.68 -4.41 -3.30 0.39 -4.26 -4.24 0.49 -1.98 -1.59 -4.13 3.66 -1.33 -2.38 3.57 -2.77 2.34 3.23 -2.31 1.98 3.08 -1.38 1.22 -3.30 -1.52 0.11 -3.96 -2.06 0.45 -4.44 -2.96 0.67 -4.60 -3.78 0.98 -2.45 -4.28 -3.33 -2.65 -3.53 -3.88 3.45 -2.22 2.59 3.62 -1.07 1.16 -3.65 -1.33 0.02 -4.42 -1.89 0.33 -4.97 -2.66 0.35 -4.51 -4.11 1.58 0.75 -1.87 4.02 -2.41 -3.32 -2.41 -2.39 -3.50 -3.46 4.28 -1.78 1.81 3.57 -1.45 1.51 -3.89 -1.10 0.05 -4.72 -1.67 0.17 -5.36 -2.74 0.49 0.90 -1.63 4.04 -2.04 -3.67 -2.27 -2.23 -4.24 -3.62 4.75 -1.25 2.08 3.95 -0.83 2.28 -3.29 -0.54 -0.19 -4.15 -1.13 0.21 -4.89 -1.31 -0.24 -5.68 -2.73 1.47 0.87 -1.29 4.07 -2.06 -5.03 -3.75 4.10 -0.45 2.01 -3.52 -0.36 0.38 -4.28 -0.79 0.67 -4.98 -1.11 0.13 0.51 -1.63 3.87 -2.52 -5.00 -2.97 4.40 -0.14 1.35 3.33 0.02 0.38 -2.91 -0.12 -0.86 -3.68 -0.23 0.19 -4.39 -0.63 0.74 -5.22 -1.11 0.94 0.39 -0.48 3.58 4.04 -0.02 1.24 1.11 1.85 -2.83 -0.03 0.35 3.40 -0.32 -0.35 3.51 2.28 1.30 1.56 1.95 3.06 1.45 2.05 2.14 1.21 1.79 2.81 1.50 2.45 2.14 1.52 3.16 1.08 0.94 -2.14 -1.53 -1.52 -1.67 2.68 0.69 -2.14 2.21 -2.29 -2.93 -2.53 -3.58 -2.64 -2.38 -3.47 0.25 -1.36 -3.01 4.09 1.14 -2.58 -1.93 0.42 -3.37 -2.08 -1.87 -3.17 -1.91 -0.72 -2.49 0.70 1.45 -3.08 0.86 1.28 -2.94 3.11 1.07 -2.42 0.02 3.42 -5.75 -1.08 2.88 -3.61 -0.30 2.24 -2.91 0.60 4.54 -3.87 0.27 2.45 -4.90 -1.04 2.81 -3.20 0.67 4.08 -3.22 -0.10 3.12 -2.47 4.58 3.34 0.98 0.28 -1.30 2.98 2.88 -1.22 1.61 0.46 -1.84 2.55 0.31 -1.96 2.73 3.47 -1.86 1.18 3.12 -1.23 1.59 2.92 -1.01 1.42 -2.51 -2.05 0.45 -3.15 -2.23 0.35 -3.23 -2.77 0.34 -1.71 -2.70 1.28 -0.00 -2.07 2.47 0.33 -1.45 2.78 0.15 -1.76 2.62 0.18 -1.67 2.66 0.46 -1.84 2.59 3.88 -1.85 1.73 3.47 -1.54 1.76 3.42 -1.22 1.52 -2.58 -1.77 0.81 -2.52 -2.65 0.86 -3.38 -2.95 0.36 -3.71 -3.28 0.36 -3.54 -3.49 0.53 -0.51 -2.81 2.20 0.41 -1.77 2.92 0.28 -1.57 2.86 -0.15 -1.52 2.74 3.82 -2.19 1.63 3.47 -1.89 1.62 3.40 -1.41 0.82 -2.89 -2.01 1.05 -2.98 -3.04 1.28 -3.49 -3.67 0.60 -3.60 -3.98 0.80 -3.50 -4.06 0.71 -0.35 -3.26 2.34 0.13 -2.38 3.03 0.09 -1.96 3.06 0.08 -1.36 2.90 0.13 -1.65 2.76 2.71 -2.96 2.35 2.64 -2.46 2.01 2.83 -1.31 1.22 -3.15 -1.80 0.46 -3.46 -2.29 1.06 -3.65 -3.06 1.25 -3.30 -4.22 2.51 -3.25 -4.46 2.13 -1.64 -4.39 2.31 -0.14 -3.35 2.86 0.22 -2.54 3.36 0.42 -2.03 3.56 0.57 -1.38 3.26 0.15 -1.80 2.69 0.42 -3.23 1.74 2.91 -3.64 2.85 2.45 -2.90 2.99 3.13 -1.26 1.37 -3.65 -1.88 0.58 -4.14 -2.52 1.03 -4.19 -3.20 1.45 -3.23 -5.30 3.74 -3.53 -5.27 3.25 0.60 -1.87 3.79 0.52 -1.26 3.61 0.62 -3.39 1.96 0.33 -3.54 1.98 3.64 -1.65 2.70 3.33 -1.32 1.98 -3.29 -1.19 0.40 -4.11 -1.73 0.69 -4.76 -2.42 0.96 -4.53 -3.41 2.37 -3.13 -6.15 5.04 4.36 -1.51 2.67 3.71 -1.22 2.62 -3.68 -1.21 0.53 -4.45 -1.70 0.92 -5.12 -2.20 1.13 -4.64 -3.47 3.83 4.90 -1.39 3.01 4.16 -1.22 2.82 3.58 0.13 0.16 -3.70 -0.95 1.01 -4.66 -1.60 1.51 -5.42 -2.21 1.97 4.39 -0.38 2.21 4.03 0.42 0.39 -3.12 -0.27 0.45 -3.85 -0.66 1.13 -4.67 -1.06 1.71 -5.47 -1.60 2.38 4.01 0.16 0.86 3.41 0.18 0.80 1.25 1.46 -3.05 0.46 1.41 -3.09 -3.29 1.19 -2.14 -4.00 0.46 -0.95 -4.24 -0.48 0.50 -4.64 -0.78 1.35 3.45 -0.21 1.19 0.22 0.99 -3.51 -0.38 0.88 -3.39 -2.28 1.08 -2.53 -2.77 0.82 -2.40 -3.36 0.65 -2.22 -4.23 0.13 -1.37 -0.69 0.43 -3.62 -1.42 0.38 -3.49 -2.42 0.33 -3.15 2.11 2.36 1.15 1.03 -3.29 -0.35 3.35 1.32 0.29 4.12 1.03 -0.14 -2.11 -2.51 -0.93 0.35 -1.47 -2.97 -2.38 -4.60 -0.90 0.53 -1.12 -3.01 -0.09 -1.24 -3.32 -2.37 -3.60 0.88 0.12 -1.42 -3.26 -1.47 2.57 0.99 -2.83 -1.61 -2.29 5.22 1.05 -3.15 -3.02 -3.02 -3.30 -2.78 -1.75 -2.48 0.90 0.12 -2.99 0.99 0.10 -2.92 1.42 0.20 -2.97 3.39 1.01 -1.87 5.22 1.28 -2.69 0.89 2.04 -2.43 1.04 2.25 -2.56 1.12 2.76 -2.43 2.04 2.81 -1.97 3.16 2.19 -1.88 3.97 1.61 -2.67 4.07 2.57 -4.21 -0.89 2.57 -2.69 -1.03 2.71 -3.94 -1.33 3.08 -2.89 -0.22 2.42 -2.41 0.48 2.74 -3.41 -1.27 2.98 -2.10 -0.79 2.93 -2.60 -0.01 2.89 -2.64 0.97 4.03 -5.53 2.98 1.26 3.46 0.64 -1.05 3.07 0.40 -1.04 3.21 0.21 -0.90 3.47 0.56 -1.13 3.40 1.32 -1.31 2.81 2.25 -1.92 2.02 2.57 -1.88 1.69 2.86 -1.26 1.28 -1.74 -2.31 1.59 -2.15 -2.72 1.81 -2.77 -2.78 0.96 -3.06 -2.97 0.62 -0.70 -2.81 1.61 0.32 -1.87 2.39 0.64 -1.22 3.11 0.46 -1.21 3.35 0.20 -1.19 3.61 0.12 -1.07 3.81 3.27 -2.57 2.10 2.78 -2.58 2.02 2.46 -2.39 2.24 2.83 -1.54 1.02 -1.88 -2.91 2.36 -2.31 -3.70 2.44 -2.93 -3.64 1.64 -3.18 -3.61 1.61 -0.95 -3.09 2.11 0.26 -2.06 2.60 0.55 -1.59 3.00 0.42 -0.97 3.22 0.27 -1.35 3.39 2.88 -3.51 2.36 2.38 -3.42 2.58 2.12 -2.78 2.73 2.75 -0.98 1.03 -2.71 -1.88 1.24 -2.62 -2.67 2.19 -2.47 -4.40 2.77 -3.11 -4.64 2.72 -3.13 -4.40 2.45 -0.89 -3.14 3.04 0.18 -2.22 2.98 0.57 -2.00 3.15 0.64 -1.44 3.12 0.64 -0.78 3.03 2.58 -4.21 3.12 1.98 -3.86 3.64 2.50 -1.53 1.75 -3.44 -1.95 1.02 -3.74 -2.47 1.80 -2.57 -4.91 3.92 -3.00 -5.50 4.20 -3.48 -5.22 3.79 -1.53 -3.14 4.07 -0.40 -2.04 3.42 0.67 -2.11 3.34 0.66 -1.30 3.20 0.65 -0.82 3.10 0.41 -0.52 3.16 0.13 -0.03 3.62 2.40 -3.86 4.08 2.70 -1.48 2.72 3.19 -0.61 0.50 -3.53 -1.24 0.61 -4.11 -1.86 1.04 -4.21 -2.81 1.74 -2.43 -5.69 4.71 0.87 -1.22 3.15 0.61 -0.89 3.07 -0.22 -0.09 3.57 3.40 -2.50 3.35 3.38 -1.52 2.52 3.50 -0.88 0.50 -3.79 -1.48 0.80 -4.59 -1.76 1.30 -4.78 -2.37 2.36 4.52 -1.84 2.84 4.09 -1.63 2.48 3.74 -0.76 0.71 -3.92 -1.16 1.45 -4.86 -1.48 1.97 -4.99 -1.89 3.87 4.60 -1.43 2.48 4.09 -0.12 1.14 -3.14 -0.39 0.92 -3.91 -0.93 1.60 -4.80 -1.36 2.25 4.11 0.28 0.70 3.58 0.14 0.51 -3.45 -0.43 0.51 -4.04 -0.50 1.34 -4.55 -0.62 2.02 3.30 -0.34 0.52 0.30 1.01 -3.76 -0.09 1.08 -4.22 -0.89 0.96 -3.93 -3.31 -0.36 -0.30 -3.74 -0.63 0.67 -4.19 -0.86 1.52 1.42 0.14 -4.01 0.