# vtk DataFile Version 2.0
VTK from Matlab
ASCII
DATASET STRUCTURED_GRID
DIMENSIONS 22319 1 1
POINTS 22319 float
33.00 79.00 13.00 33.00 80.00 13.00 28.00 101.00 13.00 34.00 73.00 14.00 34.00 74.00 14.00 38.00 74.00 14.00 34.00 75.00 14.00 37.00 75.00 14.00 38.00 75.00 14.00 31.00 76.00 14.00 34.00 76.00 14.00 37.00 76.00 14.00 38.00 76.00 14.00 31.00 77.00 14.00 34.00 77.00 14.00 35.00 77.00 14.00 36.00 77.00 14.00 37.00 77.00 14.00 38.00 77.00 14.00 41.00 77.00 14.00 28.00 78.00 14.00 30.00 78.00 14.00 31.00 78.00 14.00 33.00 78.00 14.00 34.00 78.00 14.00 35.00 78.00 14.00 36.00 78.00 14.00 37.00 78.00 14.00 38.00 78.00 14.00 39.00 78.00 14.00 41.00 78.00 14.00 30.00 79.00 14.00 31.00 79.00 14.00 32.00 79.00 14.00 33.00 79.00 14.00 34.00 79.00 14.00 35.00 79.00 14.00 36.00 79.00 14.00 37.00 79.00 14.00 38.00 79.00 14.00 39.00 79.00 14.00 41.00 79.00 14.00 30.00 80.00 14.00 31.00 80.00 14.00 32.00 80.00 14.00 33.00 80.00 14.00 34.00 80.00 14.00 35.00 80.00 14.00 36.00 80.00 14.00 37.00 80.00 14.00 38.00 80.00 14.00 39.00 80.00 14.00 41.00 80.00 14.00 42.00 80.00 14.00 31.00 81.00 14.00 32.00 81.00 14.00 33.00 81.00 14.00 34.00 81.00 14.00 35.00 81.00 14.00 36.00 81.00 14.00 38.00 81.00 14.00 39.00 81.00 14.00 41.00 81.00 14.00 42.00 81.00 14.00 32.00 82.00 14.00 33.00 82.00 14.00 34.00 82.00 14.00 35.00 82.00 14.00 36.00 82.00 14.00 38.00 82.00 14.00 39.00 82.00 14.00 32.00 83.00 14.00 33.00 83.00 14.00 34.00 83.00 14.00 35.00 83.00 14.00 38.00 83.00 14.00 32.00 84.00 14.00 33.00 84.00 14.00 34.00 84.00 14.00 35.00 84.00 14.00 38.00 84.00 14.00 31.00 85.00 14.00 32.00 85.00 14.00 33.00 85.00 14.00 34.00 85.00 14.00 35.00 85.00 14.00 37.00 85.00 14.00 38.00 85.00 14.00 31.00 86.00 14.00 32.00 86.00 14.00 33.00 86.00 14.00 34.00 86.00 14.00 35.00 86.00 14.00 37.00 86.00 14.00 38.00 86.00 14.00 39.00 86.00 14.00 31.00 87.00 14.00 32.00 87.00 14.00 33.00 87.00 14.00 34.00 87.00 14.00 35.00 87.00 14.00 36.00 87.00 14.00 37.00 87.00 14.00 38.00 87.00 14.00 39.00 87.00 14.00 32.00 88.00 14.00 33.00 88.00 14.00 34.00 88.00 14.00 27.00 95.00 14.00 28.00 95.00 14.00 29.00 95.00 14.00 30.00 95.00 14.00 31.00 95.00 14.00 32.00 95.00 14.00 33.00 95.00 14.00 34.00 95.00 14.00 35.00 95.00 14.00 36.00 95.00 14.00 37.00 95.00 14.00 38.00 95.00 14.00 39.00 95.00 14.00 40.00 95.00 14.00 26.00 96.00 14.00 27.00 96.00 14.00 28.00 96.00 14.00 29.00 96.00 14.00 30.00 96.00 14.00 31.00 96.00 14.00 32.00 96.00 14.00 33.00 96.00 14.00 34.00 96.00 14.00 35.00 96.00 14.00 36.00 96.00 14.00 37.00 96.00 14.00 38.00 96.00 14.00 39.00 96.00 14.00 40.00 96.00 14.00 41.00 96.00 14.00 42.00 96.00 14.00 27.00 97.00 14.00 28.00 97.00 14.00 29.00 97.00 14.00 30.00 97.00 14.00 31.00 97.00 14.00 32.00 97.00 14.00 33.00 97.00 14.00 34.00 97.00 14.00 35.00 97.00 14.00 36.00 97.00 14.00 37.00 97.00 14.00 38.00 97.00 14.00 39.00 97.00 14.00 40.00 97.00 14.00 41.00 97.00 14.00 42.00 97.00 14.00 27.00 98.00 14.00 28.00 98.00 14.00 29.00 98.00 14.00 30.00 98.00 14.00 31.00 98.00 14.00 32.00 98.00 14.00 33.00 98.00 14.00 34.00 98.00 14.00 35.00 98.00 14.00 36.00 98.00 14.00 37.00 98.00 14.00 38.00 98.00 14.00 39.00 98.00 14.00 40.00 98.00 14.00 41.00 98.00 14.00 42.00 98.00 14.00 28.00 99.00 14.00 29.00 99.00 14.00 30.00 99.00 14.00 31.00 99.00 14.00 32.00 99.00 14.00 33.00 99.00 14.00 34.00 99.00 14.00 35.00 99.00 14.00 36.00 99.00 14.00 37.00 99.00 14.00 38.00 99.00 14.00 39.00 99.00 14.00 40.00 99.00 14.00 41.00 99.00 14.00 42.00 99.00 14.00 28.00 100.00 14.00 29.00 100.00 14.00 30.00 100.00 14.00 31.00 100.00 14.00 32.00 100.00 14.00 33.00 100.00 14.00 34.00 100.00 14.00 35.00 100.00 14.00 36.00 100.00 14.00 37.00 100.00 14.00 38.00 100.00 14.00 39.00 100.00 14.00 40.00 100.00 14.00 41.00 100.00 14.00 42.00 100.00 14.00 27.00 101.00 14.00 28.00 101.00 14.00 29.00 101.00 14.00 30.00 101.00 14.00 31.00 101.00 14.00 32.00 101.00 14.00 33.00 101.00 14.00 34.00 101.00 14.00 35.00 101.00 14.00 36.00 58.00 15.00 32.00 71.00 15.00 32.00 72.00 15.00 34.00 72.00 15.00 35.00 72.00 15.00 29.00 73.00 15.00 30.00 73.00 15.00 31.00 73.00 15.00 32.00 73.00 15.00 33.00 73.00 15.00 34.00 73.00 15.00 35.00 73.00 15.00 36.00 73.00 15.00 37.00 73.00 15.00 29.00 74.00 15.00 30.00 74.00 15.00 31.00 74.00 15.00 32.00 74.00 15.00 33.00 74.00 15.00 34.00 74.00 15.00 35.00 74.00 15.00 36.00 74.00 15.00 37.00 74.00 15.00 38.00 74.00 15.00 26.00 75.00 15.00 28.00 75.00 15.00 29.00 75.00 15.00 30.00 75.00 15.00 31.00 75.00 15.00 32.00 75.00 15.00 33.00 75.00 15.00 34.00 75.00 15.00 35.00 75.00 15.00 36.00 75.00 15.00 37.00 75.00 15.00 38.00 75.00 15.00 39.00 75.00 15.00 40.00 75.00 15.00 26.00 76.00 15.00 28.00 76.00 15.00 29.00 76.00 15.00 30.00 76.00 15.00 31.00 76.00 15.00 32.00 76.00 15.00 33.00 76.00 15.00 34.00 76.00 15.00 35.00 76.00 15.00 36.00 76.00 15.00 37.00 76.00 15.00 38.00 76.00 15.00 39.00 76.00 15.00 40.00 76.00 15.00 26.00 77.00 15.00 27.00 77.00 15.00 28.00 77.00 15.00 29.00 77.00 15.00 30.00 77.00 15.00 31.00 77.00 15.00 32.00 77.00 15.00 33.00 77.00 15.00 34.00 77.00 15.00 35.00 77.00 15.00 36.00 77.00 15.00 37.00 77.00 15.00 38.00 77.00 15.00 39.00 77.00 15.00 40.00 77.00 15.00 41.00 77.00 15.00 24.00 78.00 15.00 26.00 78.00 15.00 27.00 78.00 15.00 28.00 78.00 15.00 29.00 78.00 15.00 30.00 78.00 15.00 31.00 78.00 15.00 32.00 78.00 15.00 33.00 78.00 15.00 34.00 78.00 15.00 35.00 78.00 15.00 36.00 78.00 15.00 37.00 78.00 15.00 38.00 78.00 15.00 39.00 78.00 15.00 40.00 78.00 15.00 41.00 78.00 15.00 42.00 78.00 15.00 24.00 79.00 15.00 26.00 79.00 15.00 27.00 79.00 15.00 28.00 79.00 15.00 29.00 79.00 15.00 30.00 79.00 15.00 31.00 79.00 15.00 32.00 79.00 15.00 33.00 79.00 15.00 34.00 79.00 15.00 35.00 79.00 15.00 36.00 79.00 15.00 37.00 79.00 15.00 38.00 79.00 15.00 39.00 79.00 15.00 40.00 79.00 15.00 41.00 79.00 15.00 42.00 79.00 15.00 43.00 79.00 15.00 24.00 80.00 15.00 25.00 80.00 15.00 26.00 80.00 15.00 27.00 80.00 15.00 28.00 80.00 15.00 29.00 80.00 15.00 30.00 80.00 15.00 31.00 80.00 15.00 32.00 80.00 15.00 33.00 80.00 15.00 34.00 80.00 15.00 35.00 80.00 15.00 36.00 80.00 15.00 37.00 80.00 15.00 38.00 80.00 15.00 39.00 80.00 15.00 40.00 80.00 15.00 41.00 80.00 15.00 42.00 80.00 15.00 43.00 80.00 15.00 44.00 80.00 15.00 24.00 81.00 15.00 25.00 81.00 15.00 26.00 81.00 15.00 27.00 81.00 15.00 28.00 81.00 15.00 29.00 81.00 15.00 30.00 81.00 15.00 31.00 81.00 15.00 32.00 81.00 15.00 33.00 81.00 15.00 34.00 81.00 15.00 35.00 81.00 15.00 36.00 81.00 15.00 37.00 81.00 15.00 38.00 81.00 15.00 39.00 81.00 15.00 40.00 81.00 15.00 41.00 81.00 15.00 42.00 81.00 15.00 43.00 81.00 15.00 44.00 81.00 15.00 24.00 82.00 15.00 25.00 82.00 15.00 26.00 82.00 15.00 27.00 82.00 15.00 28.00 82.00 15.00 29.00 82.00 15.00 30.00 82.00 15.00 31.00 82.00 15.00 32.00 82.00 15.00 33.00 82.00 15.00 34.00 82.00 15.00 35.00 82.00 15.00 36.00 82.00 15.00 37.00 82.00 15.00 38.00 82.00 15.00 39.00 82.00 15.00 40.00 82.00 15.00 42.00 82.00 15.00 43.00 82.00 15.00 44.00 82.00 15.00 24.00 83.00 15.00 25.00 83.00 15.00 26.00 83.00 15.00 27.00 83.00 15.00 28.00 83.00 15.00 29.00 83.00 15.00 30.00 83.00 15.00 31.00 83.00 15.00 32.00 83.00 15.00 33.00 83.00 15.00 34.00 83.00 15.00 35.00 83.00 15.00 36.00 83.00 15.00 37.00 83.00 15.00 38.00 83.00 15.00 39.00 83.00 15.00 40.00 83.00 15.00 43.00 83.00 15.00 44.00 83.00 15.00 23.00 84.00 15.00 24.00 84.00 15.00 25.00 84.00 15.00 26.00 84.00 15.00 27.00 84.00 15.00 28.00 84.00 15.00 29.00 84.00 15.00 30.00 84.00 15.00 31.00 84.00 15.00 32.00 84.00 15.00 33.00 84.00 15.00 34.00 84.00 15.00 35.00 84.00 15.00 36.00 84.00 15.00 37.00 84.00 15.00 38.00 84.00 15.00 39.00 84.00 15.00 40.00 84.00 15.00 44.00 84.00 15.00 22.00 85.00 15.00 23.00 85.00 15.00 24.00 85.00 15.00 25.00 85.00 15.00 26.00 85.00 15.00 27.00 85.00 15.00 28.00 85.00 15.00 29.00 85.00 15.00 30.00 85.00 15.00 31.00 85.00 15.00 32.00 85.00 15.00 33.00 85.00 15.00 34.00 85.00 15.00 35.00 85.00 15.00 36.00 85.00 15.00 37.00 85.00 15.00 38.00 85.00 15.00 39.00 85.00 15.00 40.00 85.00 15.00 44.00 85.00 15.00 22.00 86.00 15.00 23.00 86.00 15.00 24.00 86.00 15.00 25.00 86.00 15.00 26.00 86.00 15.00 27.00 86.00 15.00 28.00 86.00 15.00 29.00 86.00 15.00 30.00 86.00 15.00 31.00 86.00 15.00 32.00 86.00 15.00 33.00 86.00 15.00 34.00 86.00 15.00 35.00 86.00 15.00 36.00 86.00 15.00 37.00 86.00 15.00 38.00 86.00 15.00 39.00 86.00 15.00 40.00 86.00 15.00 44.00 86.00 15.00 19.00 87.00 15.00 24.00 87.00 15.00 25.00 87.00 15.00 27.00 87.00 15.00 29.00 87.00 15.00 30.00 87.00 15.00 31.00 87.00 15.00 32.00 87.00 15.00 33.00 87.00 15.00 34.00 87.00 15.00 35.00 87.00 15.00 36.00 87.00 15.00 37.00 87.00 15.00 38.00 87.00 15.00 39.00 87.00 15.00 40.00 87.00 15.00 42.00 87.00 15.00 43.00 87.00 15.00 19.00 88.00 15.00 27.00 88.00 15.00 28.00 88.00 15.00 29.00 88.00 15.00 30.00 88.00 15.00 31.00 88.00 15.00 32.00 88.00 15.00 33.00 88.00 15.00 34.00 88.00 15.00 35.00 88.00 15.00 36.00 88.00 15.00 37.00 88.00 15.00 38.00 88.00 15.00 39.00 88.00 15.00 40.00 88.00 15.00 42.00 88.00 15.00 43.00 88.00 15.00 27.00 89.00 15.00 29.00 89.00 15.00 30.00 89.00 15.00 31.00 89.00 15.00 32.00 89.00 15.00 33.00 89.00 15.00 34.00 89.00 15.00 41.00 89.00 15.00 42.00 89.00 15.00 28.00 90.00 15.00 29.00 90.00 15.00 30.00 90.00 15.00 31.00 90.00 15.00 33.00 95.00 15.00 34.00 95.00 15.00 35.00 95.00 15.00 36.00 95.00 15.00 37.00 95.00 15.00 38.00 95.00 15.00 25.00 96.00 15.00 26.00 96.00 15.00 27.00 96.00 15.00 28.00 96.00 15.00 29.00 96.00 15.00 30.00 96.00 15.00 31.00 96.00 15.00 32.00 96.00 15.00 33.00 96.00 15.00 34.00 96.00 15.00 35.00 96.00 15.00 36.00 96.00 15.00 37.00 96.00 15.00 38.00 96.00 15.00 39.00 96.00 15.00 40.00 96.00 15.00 41.00 96.00 15.00 42.00 96.00 15.00 43.00 96.00 15.00 26.00 97.00 15.00 27.00 97.00 15.00 28.00 97.00 15.00 29.00 97.00 15.00 30.00 97.00 15.00 31.00 97.00 15.00 32.00 97.00 15.00 33.00 97.00 15.00 34.00 97.00 15.00 35.00 97.00 15.00 36.00 97.00 15.00 37.00 97.00 15.00 38.00 97.00 15.00 39.00 97.00 15.00 40.00 97.00 15.00 41.00 97.00 15.00 42.00 97.00 15.00 43.00 97.00 15.00 26.00 98.00 15.00 27.00 98.00 15.0
[...]
POINT_DATA 22319
VECTORS vector_field float
0.51 -3.90 0.75 0.67 -3.25 0.36 1.23 5.00 -2.66 1.00 -6.72 6.38 0.98 -6.40 7.02 2.68 -6.03 8.38 0.85 -5.59 7.65 2.16 -6.08 8.40 2.48 -5.88 9.08 0.05 -5.08 7.30 0.59 -4.66 7.54 1.70 -5.45 8.42 2.01 -5.47 8.94 0.16 -4.78 6.08 0.34 -4.36 6.42 0.44 -4.53 6.69 0.66 -4.78 6.95 0.96 -5.05 7.25 1.28 -5.26 7.56 2.03 -5.85 6.62 -0.65 -6.43 6.68 0.00 -5.48 4.72 0.12 -5.09 4.41 0.18 -4.59 4.69 0.18 -4.53 4.94 0.20 -4.64 5.22 0.30 -4.87 5.45 0.51 -5.16 5.61 0.81 -5.47 5.67 1.18 -5.79 5.63 1.93 -6.62 4.41 -0.05 -5.93 2.68 0.08 -5.47 2.53 0.14 -5.08 2.82 0.17 -4.79 3.17 0.18 -4.69 3.40 0.19 -4.85 3.57 0.30 -5.11 3.71 0.49 -5.42 3.78 0.81 -5.75 3.75 1.25 -6.12 3.57 2.17 -6.91 2.77 -0.02 -5.97 1.09 0.15 -5.35 1.30 0.21 -4.82 1.85 0.27 -4.44 2.30 0.31 -4.34 2.44 0.36 -4.62 2.33 0.55 -4.99 2.21 0.82 -5.36 2.09 1.16 -5.72 1.99 1.59 -6.07 1.81 2.43 -6.72 1.43 2.74 -6.87 1.17 0.22 -4.92 0.83 0.32 -4.28 1.61 0.39 -3.85 2.22 0.42 -3.74 2.37 0.50 -4.02 2.07 0.78 -4.46 1.53 1.45 -5.32 0.80 1.82 -5.71 0.56 2.55 -6.36 0.33 2.86 -6.53 0.29 0.39 -3.85 1.71 0.46 -3.42 2.51 0.47 -3.28 2.78 0.55 -3.49 2.49 0.83 -3.92 1.72 1.51 -4.85 0.41 1.85 -5.26 0.01 0.46 -3.51 2.14 0.52 -3.08 3.10 0.50 -2.93 3.36 0.54 -3.09 3.08 1.46 -4.43 0.36 0.56 -3.21 2.67 0.57 -2.81 3.53 0.49 -2.62 3.77 0.45 -2.74 3.57 1.38 -4.06 0.57 0.59 -3.44 1.53 0.66 -2.96 3.02 0.62 -2.56 3.75 0.47 -2.33 3.95 0.34 -2.38 3.82 0.82 -3.17 2.15 1.23 -3.69 0.89 0.72 -3.11 1.84 0.77 -2.66 3.11 0.67 -2.26 3.70 0.49 -1.99 3.82 0.30 -1.99 3.73 0.57 -2.74 2.43 1.02 -3.24 1.13 1.32 -3.60 0.03 0.83 -2.68 1.96 0.86 -2.26 2.95 0.74 -1.89 3.36 0.56 -1.62 3.39 0.35 -1.58 3.28 0.26 -1.85 3.05 0.46 -2.26 2.33 0.87 -2.69 1.16 1.15 -3.03 0.07 0.90 -1.86 2.51 0.82 -1.50 2.76 0.68 -1.20 2.67 2.06 1.05 -1.93 2.07 1.28 -1.85 1.88 1.66 -1.72 1.61 2.04 -1.65 1.27 2.37 -1.62 0.98 2.63 -1.66 0.81 2.83 -1.74 0.82 3.00 -1.83 0.96 3.05 -1.87 1.11 3.01 -1.86 1.19 2.92 -1.82 1.13 2.79 -1.70 0.91 2.63 -1.60 0.63 2.55 -1.56 1.79 2.15 -2.02 1.92 2.05 -2.14 1.80 2.18 -2.14 1.49 2.40 -2.14 1.12 2.58 -2.19 0.82 2.72 -2.25 0.60 2.87 -2.32 0.54 3.06 -2.41 0.67 3.23 -2.50 0.91 3.32 -2.56 1.21 3.32 -2.58 1.46 3.29 -2.55 1.56 3.26 -2.48 1.46 3.21 -2.38 1.26 3.27 -2.25 1.10 3.34 -2.07 1.08 3.25 -1.80 1.65 3.38 -2.30 1.42 3.52 -2.42 1.09 3.56 -2.50 0.79 3.48 -2.56 0.57 3.41 -2.64 0.46 3.41 -2.73 0.46 3.50 -2.80 0.60 3.62 -2.84 0.88 3.73 -2.86 1.28 3.78 -2.87 1.68 3.85 -2.85 1.92 3.97 -2.83 1.94 4.12 -2.78 1.81 4.31 -2.67 1.62 4.45 -2.50 1.50 4.34 -2.19 1.55 5.36 -2.62 1.25 5.44 -2.83 0.91 5.21 -2.88 0.65 4.90 -2.87 0.50 4.57 -2.83 0.42 4.30 -2.80 0.44 4.17 -2.79 0.57 4.17 -2.76 0.84 4.22 -2.77 1.26 4.29 -2.81 1.72 4.48 -2.85 1.97 4.81 -2.88 1.98 5.21 -2.90 1.83 5.53 -2.89 1.63 5.65 -2.78 1.52 5.38 -2.49 1.32 6.23 -3.09 0.99 6.01 -3.12 0.73 5.68 -3.03 0.55 5.30 -2.84 0.45 4.96 -2.63 0.46 4.73 -2.50 0.58 4.63 -2.43 0.82 4.58 -2.47 1.21 4.62 -2.55 1.63 4.83 -2.66 1.85 5.19 -2.77 1.80 5.56 -2.87 1.61 5.86 -2.91 1.40 5.98 -2.85 1.31 5.78 -2.62 1.35 6.00 -3.08 1.06 5.93 -3.09 0.82 5.68 -2.92 0.64 5.38 -2.61 0.52 5.11 -2.28 0.49 4.92 -2.04 0.59 4.80 -1.93 0.80 4.73 -1.99 1.13 4.76 -2.13 1.49 4.89 -2.31 1.67 5.13 -2.51 1.61 5.38 -2.69 1.39 5.58 -2.78 1.17 5.66 -2.79 1.07 5.57 -2.61 1.59 5.00 -2.63 1.33 5.00 -2.92 1.06 5.00 -2.90 0.81 5.00 -2.66 0.64 5.00 -2.25 0.55 4.90 -1.82 0.53 4.77 -1.48 0.60 4.71 -1.31 0.77 4.70 -1.34 0.31 -16.85 7.87 0.24 -8.69 3.26 0.23 -9.43 4.10 0.85 -9.28 4.20 1.10 -9.60 4.15 -0.15 -11.31 4.89 -0.10 -10.71 4.81 -0.00 -10.08 4.90 0.21 -9.64 5.02 0.53 -9.42 5.10 0.87 -9.49 5.12 1.14 -9.77 5.10 1.35 -10.02 5.12 1.54 -10.10 5.25 -0.37 -10.93 5.72 -0.32 -10.27 5.69 -0.17 -9.64 5.83 0.11 -9.19 5.97 0.51 -8.95 6.04 0.93 -9.04 6.07 1.26 -9.33 6.07 1.52 -9.56 6.11 1.76 -9.63 6.26 2.01 -9.40 6.65 -1.75 -9.32 8.29 -0.81 -10.55 6.97 -0.69 -10.12 6.74 -0.57 -9.37 6.78 -0.33 -8.59 6.85 0.03 -8.06 6.93 0.48 -7.80 6.98 0.93 -7.93 6.99 1.34 -8.29 7.00 1.69 -8.61 7.13 1.97 -8.79 7.39 2.22 -8.75 7.85 2.45 -8.49 8.59 2.60 -7.99 9.83 -1.82 -9.28 9.02 -1.08 -9.78 7.96 -0.93 -9.16 7.73 -0.68 -8.20 7.61 -0.23 -7.21 7.62 0.16 -6.49 7.67 0.45 -6.15 7.72 0.74 -6.30 7.78 1.14 -6.83 7.83 1.59 -7.35 8.00 1.94 -7.73 8.33 2.18 -7.93 8.89 2.32 -7.97 9.64 2.37 -7.73 10.68 -1.99 -9.04 9.56 -1.47 -9.35 9.05 -1.21 -9.03 8.61 -0.91 -8.14 8.20 -0.39 -6.87 7.81 0.12 -5.70 7.42 0.33 -5.06 7.21 0.40 -4.81 7.19 0.45 -4.86 7.35 0.59 -5.25 7.65 0.94 -5.83 8.04 1.37 -6.42 8.54 1.72 -6.85 9.20 1.96 -7.16 10.00 2.10 -7.19 10.89 2.21 -6.82 11.66 -2.71 -7.12 8.01 -2.17 -8.69 9.83 -1.61 -8.77 9.32 -1.16 -8.21 8.66 -0.56 -7.04 7.76 0.05 -5.81 6.76 0.29 -5.05 6.12 0.32 -4.64 5.90 0.27 -4.44 5.91 0.20 -4.42 6.07 0.17 -4.65 6.39 0.26 -5.04 6.79 0.50 -5.50 7.30 0.91 -5.98 8.02 1.31 -6.39 9.00 1.62 -6.63 9.98 1.82 -6.59 10.70 1.90 -6.28 10.66 -2.41 -7.79 7.06 -2.12 -8.41 9.60 -1.51 -8.25 8.97 -0.81 -7.49 7.80 -0.13 -6.50 6.32 0.17 -5.73 5.20 0.26 -5.14 4.69 0.26 -4.71 4.61 0.19 -4.45 4.70 0.08 -4.40 4.85 -0.03 -4.61 5.10 -0.06 -4.96 5.41 0.01 -5.37 5.76 0.24 -5.81 6.19 0.62 -6.25 6.94 1.03 -6.58 7.95 1.36 -6.76 8.80 1.61 -6.83 8.87 2.04 -7.31 6.85 -2.01 -8.74 5.48 -2.18 -8.41 8.36 -1.78 -8.42 8.65 -1.09 -8.06 7.74 -0.42 -7.38 6.12 -0.11 -6.70 4.60 0.08 -5.99 3.71 0.21 -5.30 3.53 0.25 -4.73 3.71 0.21 -4.37 3.92 0.12 -4.31 4.01 -0.00 -4.58 4.07 -0.05 -5.02 4.16 -0.01 -5.49 4.31 0.15 -5.99 4.53 0.49 -6.50 4.87 0.84 -6.97 5.46 1.20 -7.36 6.10 1.58 -7.74 6.14 2.24 -8.38 4.65 3.17 -8.50 2.83 -1.80 -9.74 3.86 -1.84 -9.18 6.41 -1.43 -8.84 6.85 -0.84 -8.36 5.80 -0.51 -7.75 4.24 -0.30 -6.99 3.08 0.00 -6.11 2.70 0.21 -5.23 3.01 0.28 -4.49 3.54 0.26 -4.05 3.84 0.19 -3.98 3.89 0.11 -4.31 3.75 0.13 -4.86 3.47 0.26 -5.46 3.23 0.51 -6.07 3.16 0.93 -6.68 3.20 1.45 -7.30 3.37 1.87 -7.91 3.63 2.33 -8.52 3.57 2.85 -9.00 2.89 3.58 -8.41 2.46 -1.93 -10.59 2.66 -1.76 -10.05 4.17 -1.45 -9.47 4.50 -1.11 -8.79 3.68 -0.84 -8.00 2.64 -0.43 -7.05 2.08 -0.00 -6.04 2.28 0.23 -5.04 3.01 0.32 -4.24 3.73 0.32 -3.74 4.13 0.25 -3.63 4.21 0.19 -3.93 4.04 0.26 -4.49 3.54 0.51 -5.16 2.93 0.93 -5.86 2.42 1.52 -6.57 2.09 2.19 -7.26 1.97 3.09 -8.56 1.99 3.38 -8.78 1.88 3.88 -8.06 2.10 -2.38 -10.63 2.25 -2.20 -10.33 2.70 -1.94 -9.58 2.77 -1.55 -8.72 2.23 -1.01 -7.84 1.69 -0.43 -6.88 1.64 0.04 -5.85 2.25 0.28 -4.84 3.20 0.37 -4.02 4.04 0.37 -3.50 4.46 0.30 -3.36 4.55 0.23 -3.60 4.40 0.29 -4.11 3.94 0.58 -4.76 3.17 1.13 -5.49 2.33 1.87 -6.23 1.62 2.58 -6.95 1.24 3.62 -8.25 1.19 3.98 -7.64 1.68 -3.91 -8.23 2.07 -3.22 -9.61 2.33 -2.84 -9.62 2.29 -2.34 -8.96 2.04 -1.61 -8.25 1.66 -0.88 -7.48 1.40 -0.28 -6.57 1.61 0.16 -5.58 2.48 0.38 -4.62 3.51 0.45 -3.81 4.32 0.43 -3.27 4.66 0.33 -3.09 4.74 0.21 -3.29 4.64 0.23 -3.76 4.28 0.50 -4.38 3.54 1.13 -5.08 2.56 1.97 -5.79 1.55 2.68 -6.47 0.91 3.92 -7.12 1.10 -4.69 -6.00 0.83 -4.24 -7.41 2.01 -3.69 -8.36 2.47 -3.02 -8.52 2.33 -2.13 -8.17 1.96 -1.21 -7.67 1.57 -0.52 -6.96 1.44 0.02 -6.10 1.91 0.38 -5.21 2.87 0.55 -4.32 3.82 0.55 -3.55 4.45 0.48 -3.00 4.69 0.32 -2.78 4.74 0.15 -2.92 4.68 0.10 -3.36 4.43 0.33 -3.98 3.84 0.95 -4.65 2.88 1.87 -5.30 1.65 2.59 -5.87 0.71 3.67 -6.45 -0.07 -4.44 -5.96 0.13 -4.24 -6.85 1.30 -3.57 -7.46 2.02 -2.57 -7.60 2.07 -1.44 -7.39 1.76 -0.63 -6.92 1.48 -0.04 -6.27 1.60 0.41 -5.53 2.33 0.68 -4.73 3.26 0.75 -3.92 3.98 0.67 -3.19 4.40 0.52 -2.64 4.53 0.32 -2.39 4.53 0.10 -2.47 4.48 -0.01 -2.88 4.31 0.14 -3.48 3.90 0.65 -4.13 3.10 1.55 -4.76 1.86 2.34 -5.24 0.68 3.39 -5.76 -1.26 -3.98 -2.85 -0.30 -2.85 -6.71 1.01 -1.73 -6.73 1.25 -0.03 -6.06 1.23 0.79 -4.85 2.62 0.95 -4.10 3.41 0.91 -3.35 3.92 0.76 -2.71 4.16 0.56 -2.22 4.19 0.33 -1.95 4.15 0.09 -1.99 4.08 -0.06 -2.35 3.97 0.01 -2.89 3.66 0.40 -3.48 3.03 1.16 -4.08 1.93 1.89 -4.52 0.71 2.62 -4.94 -0.93 2.81 -5.05 -1.45 -3.51 -2.35 -0.83 0.41 -5.15 0.99 0.77 -4.66 1.75 1.04 -4.02 2.62 1.11 -3.34 3.27 1.00 -2.73 3.61 0.81 -2.20 3.72 0.60 -1.78 3.68 0.37 -1.51 3.58 0.15 -1.50 3.48 -0.01 -1.77 3.42 -0.00 -2.23 3.19 0.29 -2.73 2.65 0.87 -3.24 1.68 1.44 -3.63 0.54 1.95 -3.97 -1.03 2.12 -4.08 -1.49 0.56 -4.25 0.77 1.13 -3.20 2.36 1.14 -2.65 2.87 1.02 -2.18 3.09 0.84 -1.74 3.13 0.66 -1.36 3.04 0.47 -1.08 2.90 1.35 -2.97 -0.60 1.35 -3.12 -1.21 0.99 -2.90 1.26 1.17 -2.43 1.93 1.17 -2.01 2.36 1.05 -1.63 2.56 0.82 2.78 -1.31 0.77 2.94 -1.43 0.82 2.98 -1.50 0.88 2.92 -1.53 0.89 2.79 -1.51 0.80 2.59 -1.46 1.49 2.30 -2.28 1.87 1.89 -2.43 2.00 1.77 -2.39 1.86 1.92 -2.19 1.55 2.24 -2.01 1.18 2.53 -1.99 0.82 2.76 -2.05 0.56 2.95 -2.14 0.46 3.15 -2.22 0.54 3.29 -2.32 0.73 3.34 -2.40 0.95 3.32 -2.47 1.12 3.28 -2.51 1.15 3.24 -2.51 1.06 3.20 -2.52 0.89 3.27 -2.53 0.76 3.36 -2.49 0.78 3.32 -2.35 0.98 3.09 -2.09 1.72 3.28 -2.61 1.72 3.26 -2.69 1.49 3.37 -2.69 1.16 3.47 -2.66 0.82 3.47 -2.63 0.53 3.45 -2.62 0.35 3.47 -2.64 0.32 3.53 -2.69 0.43 3.60 -2.76 0.68 3.67 -2.82 1.02 3.72 -2.89 1.33 3.80 -2.94 1.51 3.96 -2.98 1.55 4.22 -3.04 1.47 4.54 -3.08 1.33 4.84 -3.06 1.25 4.81 -2.86 1.33 4.33 -2.40 1.80 5.21 -2.79 1.63 5.49 -3.09 1.33 5.49 -3.20 0.97 5.20 -3.15 0.67 4.83 -3.02 0.44 4.48 -2.88 0.30 4.21 -2.77 0.29 4.07 -2.72 0.41 4.06 -2.72 0.67 4.10 -2.77 1.05 4.18 -2.88 1.45 4.37 -2.99 1.69 4.78 -3.11 1.73 5.32 -3.24 1.60 5.80 -3.35 1.39 6.07 -3.34 1.28 5.95 -3.16 1.35 5.25 -2.63 1.75 6.42 -3.25 1.41 6.37 -3.41 1.05 6.09 -3.34 0.50 5.26 -2.87 0.36 4.88 -2.59 0.34 4.65 -2.41 0.45 4.56 -2.34 0.67 4.55 -2.40 1.03 4.62 -2.56 1.42 4.85 -2.78 1.65 5.26 -2.99 1.65 5.72 -3.20 1.46 6.09 -3.34 1.24 6.27 -3.36 1.13 6.18 -3.18 1.74 6.00 -3.17 1.42 6.00 -3.36 1.10 6.00 -3.28 0.83 5.80 -3.00 0.61 5.46 -2.61 0.46 5.16 -2.22 0.43 4.97 -1.91 0.51 4.87 -1.79 0.67 4.87 -1.83 0.95 4.95 -2.01 1.28 5.11 -2.29 1.50 5.35 -2.63 1.50 5.59 -2.95 1.29 5.80 -3.16 1.08 5.88 -3.23 0.95 5.84 -3.09 0.99 5.48 -2.60 1.84 5.00 -2.49 1.68 5.00 -2.97 1.40 5.00 -3.18 1.09 5.00 -3.06 0.81 5.00 -2.73 0.62 5.00 -2.26 -0.84 -16.59 9.22 -0.79 -17.64 9.69 -0.77 -18.21 10.01 -0.63 -18.28 10.06 -0.42 -17.81 9.87 -0.03 -16.81 9.46 -0.89 -15.46 8.34 -0.74 -17.08 9.09 -0.64 -18.02 9.51 -0.56 -18.46 9.77 -0.45 -18.51 9.81 -0.35 -18.40 9.76 -0.20 -18.03 9.62 0.07 -17.22 9.30 -0.79 -16.01 8.22 -0.65 -17.48 8.94 -0.52 -18.27 9.31 -0.37 -18.53 9.50 -0.21 -18.44 9.49 -0.08 -18.34 9.43 0.01 -18.12 9.35 0.17 -17.54 9.12 0.46 -16.49 8.68 -0.71 -16.48 8.08 -0.59 -17.79 8.74 -0.43 -18.39 9.06 -0.22 -18.39 9.16 -0.00 -18.07 9.07 0.13 -18.03 9.04 0.20 -18.04 9.02 0.29 -17.73 8.89 0.48 -16.93 8.54 -0.65 -16.87 7.88 -0.55 -18.02 8.49 -0.37 -18.40 8.75 -0.10 -18.07 8.72 0.15 -17.45 8.49 0.27 -17.48 8.50 0.36 -17.79 8.60 0.41 -17.81 8.59 0.58 -17.24 8.30 -0.59 -17.19 7.64 -0.50 -18.16 8.19 -0.31 -18.32 8.37 -0.03 -17.61 8.14 0.15 -16.62 7.67 0.23 -16.67 7.71 0.43 -17.41 8.06 0.51 -17.79 8.20 0.70 -17.47 7.99 -0.86 -15.96 6.36 -0.55 -17.44 7.32 -0.45 -18.26 7.83 -0.27 -18.19 7.89 -0.04 -17.11 7.39 0.05 -15.66 6.54 0.08 -15.66 6.55 0.33 -16.92 7.32 0.52 -17.72 7.71 0.79 -17.63 7.56 1.06 -16.94 6.93 1.35 -15.61 5.68 -0.51 -17.61 6.92 -0.38 -18.29 7.37 -0.24 -18.00 7.28 -0.08 -16.64 6.50 -0.04 -14.86 5.36 0.01 -14.74 5.26 0.19 -16.42 6.35 0.46 -17.59 7.06 0.79 -17.73 6.99 1.02 -17.13 6.36 -0.32 -18.22 6.78 -0.20 -17.74 6.51 -0.12 -16.27 5.55 -0.18 -14.24 4.45 -0.04 -13.92 4.29 0.13 -15.96 5.24 0.38 -17.37 6.14 0.69 -17.69 6.19 0.93 -17.12 5.53 -0.16 -17.37 5.57 -0.21 -15.84 4.64 -0.36 -13.59 3.74 -0.11 -13.15 3.57 0.11 -15.39 4.20 0.29 -16.99 4.97 0.55 -17.41 5.07 -0.40 -14.98 3.64 -0.50 -12.57 2.86 -0.10 -12.22 2.79 0.11 -14.50 3.28 0.34 -11.05 1.51 0.86 -10.80 1.57 0.23 -14.01 3.13 0.24 -13.20 2.71 0.22 -12.15 2.57 0.31 -11.29 2.65 0.55 -10.89 2.74 0.81 -11.07 2.73 0.96 -11.64 2.66 1.01 -12.30 2.74 1.02 -12.77 2.98 -2.48 -9.01 6.25 -0.35 -13.43 5.01 0.07 -14.02 4.37 0.20 -13.71 3.91 0.14 -12.83 3.65 0.13 -11.86 3.68 0.25 -11.17 3.85 0.51 -10.86 3.97 0.80 -10.97 3.96 0.99 -11.39 3.87 1.07 -11.92 3.85 1.09 -12.40 3.97 1.14 -12.58 4.31 1.33 -12.35 4.82 -2.23 -9.59 7.19 -1.13 -11.65 6.53 -0.39 -13.16 5.73 -0.03 -13.53 5.14 0.01 -13.07 4.79 -0.06 -12.15 4.73 -0.03 -11.26 4.89 0.16 -10.66 5.08 0.50 -10.37 5.21 0.87 -10.45 5.21 1.13 -10.82 5.13 1.30 -11.24 5.07 1.39 -11.64 5.10 1.47 -11.85 5.32 1.62 -11.74 5.79 2.01 -10.94 6.70 2.52 -9.60 8.22 -2.03 -9.85 8.06 -1.13 -11.44 7.33 -0.58 -12.54 6.59 -0.36 -12.72 6.04 -0.36 -12.12 5.85 -0.42 -11.09 5.99 -0.31 -10.05 6.22 0.02 -9.32 6.43 0.47 -8.96 6.52 0.95 -9.09 6.50 1.34 -9.56 6.44 1.60 -10.03 6.46 1.75 -10.47 6.54 1.86 -10.70 6.76 1.99 -10.74 7.15 2.17 -10.37 8.00 2.26 -9.59 9.39 2.29 -8.39 11.24 -3.15 -7.90 9.48 -2.00 -9.83 8.88 -1.18 -11.12 8.16 -0.83 -11.78 7.55 -0.73 -11.68 7.18 -0.76 -10.84 7.13 -0.69 -9.60 7.28 -0.36 -8.29 7.44 0.08 -7.25 7.57 0.43 -6.76 7.64 0.77 -6.94 7.66 1.21 -7.63 7.64 1.63 -8.38 7.73 1.88 -9.02 7.95 2.02 -9.51 8.25 2.07 -9.82 8.67 2.07 -9.80 9.41 2.02 -9.39 10.52 2.12 -8.44 11.86 2.57 -4.66 10.34 -3.04 -7.73 9.98 -2.17 -9.60 9.59 -1.29 -10.66 8.95 -1.01 -11.00 8.47 -0.94 -10.60 8.21 -0.88 -9.51 8.09 -0.54 -7.88 7.92 0.04 -6.18 7.68 0.34 -5.11 7.37 0.41 -4.72 7.28 0.44 -4.80 7.43 0.58 -5.34 7.75 0.96 -6.21 8.15 1.43 -7.21 8.59 1.73 -8.09 9.15 1.87 -8.75 9.74 1.91 -9.06 10.45 1.91 -8.96 11.31 2.06 -8.20 12.25 2.26 -5.22 10.20 -2.90 -7.48 9.97 -2.42 -9.21 10.10 -1.61 -10.12 9.53 -1.18 -10.23 9.08 -1.03 -9.53 8.68 -0.69 -8.02 8.15 0.01 -6.08 7.26 0.38 -4.80 6.46 0.38 -4.22 6.09 0.29 -3.98 6.01 0.17 -4.00 6.15 0.09 -4.28 6.48 0.15 -4.79 6.94 0.45 -5.53 7.64 0.94 -6.45 8.60 1.43 -7.44 9.73 1.69 -8.09 10.71 1.83 -8.24 11.55 1.92 -7.75 12.20 1.90 -6.62 12.07 2.03 -5.85 9.76 -2.69 -7.42 9.24 -2.50 -8.78 10.24 -1.96 -9.49 9.82 -1.41 -9.37 9.24 -0.88 -8.35 8.43 -0.12 -6.68 7.11 0.34 -5.37 5.87 0.42 -4.56 5.24 0.36 -4.06 5.03 0.21 -3.81 5.04 0.04 -3.79 5.15 -0.14 -4.02 5.36 -0.25 -4.43 5.66 -0.23 -4.98 6.12 0.04 -5.65 6.90 0.54 -6.42 8.18 1.09 -7.17 9.70 1.45 -7.55 10.83 1.59 -7.40 11.44 1.56 -6.79 11.18 1.91 -6.60 8.86 -2.54 -7.87 7.94 -2.32 -8.50 9.71 -1.95 -8.94 9.56 -1.26 -8.57 8.73 -0.37 -7.48 7.25 0.19 -6.32 5.64 0.35 -5.38 4.70 0.41 -4.57 4.40 0.37 -4.00 4.42 0.24 -3.70 4.50 0.06 -3.67 4.56 -0.16 -3.92 4.63 -0.32 -4.35 4.74 -0.41 -4.91 4.94 -0.35 -5.54 5.36 -0.09 -6.21 6.21 0.37 -6.85 7.67 0.84 -7.29 9.17 1.13 -7.39 10.02 1.27 -7.21 9.87 1.95 -7.60 7.34 -2.43 -8.79 6.24 -2.05 -8.67 8.55 -1.56 -8.73 8.53 -0.73 -8.23 7.36 -0.11 -7.38 5.68 0.13 -6.47 4.43 0.31 -5.47 3.98 0.43 -4.54 4.06 0.41 -3.88 4.31 0.29 -3.54 4.47 0.13 -3.50 4.50 -0.06 -3.76 4.44 -0.23 -4.26 4.30 -0.30 -4.89 4.19 -0.26 -5.59 4.26 -0.08 -6.34 4.62 0.16 -7.02 5.50 0.46 -7.52 6.87 0.81 -7.80 7.91 1.22 -7.98 7.79 2.22 -8.76 5.52 -2.56 -10.27 1.98 -2.35 -9.94 4.30 -1.89 -9.36 6.73 -1.23 -9.03 6.81 -0.62 -8.46 5.57 -0.33 -7.67 4.24 -0.01 -6.63 3.62 0.31 -5.49 3.69 0.46 -4.50 4.08 0.44 -3.80 4.45 0.34 -3.41 4.66 0.21 -3.36 4.70 0.04 -3.62 4.61 -0.12 -4.11 4.36 -0.16 -4.77 4.00 -0.00 -5.55 3.69 0.34 -6.40 3.58 0.75 -7.24 3.84 1.00 -8.00 4.52 1.23 -8.57 5.23 1.77 -9.08 5.13 2.90 -9.53 3.98 -2.89 -10.61 1.79 -2.49 -10.97 2.72 -2.05 -10.32 4.39 -1.51 -9.67 4.57 -1.11 -8.87 3.78 -0.63 -7.82 3.22 -0.02 -6.59 3.31 0.37 -5.43 3.73 0.48 -4.48 4.23 0.45 -3.76 4.63 0.38 -3.32 4.83 0.26 -3.24 4.87 0.10 -3.48 4.79 -0.04 -3.97 4.55 -0.07 -4.62 4.16 0.14 -5.40 3.65 0.67 -6.25 3.21 1.54 -7.21 2.94 2.26 -8.17 2.97 2.67 -9.01 3.15 3.06 -9.59 3.19 3.69 -9.56 3.21 4.92 -8.39 3.62 6.68 -5.88 3.52 -3.50 -10.43 1.74 -2.86 -11.42 1.99 -2.64 -10.83 2.71 -2.25 -9.89 2.89 -1.68 -8.80 2.68 -0.64 -7.59 2.87 0.16 -6.40 3.38 0.47 -5.35 3.90 0.52 -4.43 4.40 0.48 -3.68 4.74 0.40 -3.19 4.87 0.28 -3.06 4.89 0.11 -3.29 4.85 -0.02 -3.79 4.68 -0.06 -4.44 4.34 0.15 -5.21 3.83 0.74 -6.00 3.24 1.86 -6.90 2.67 2.96 -7.85 2.34 3.54 -8.69 2.29 3.81 -9.18 2.46 4.27 -9.03 2.89 5.04 -8.12 3.30 6.24 -6.10 3.04 -4.78 -7.75 1.35 -4.11 -9.87 1.75 -3.56 -10.77 2.03 -3.31 -10.32 2.29 -2.73 -9.31 2.37 -1.49 -8.25 2.52 -0.20 -7.17 3.07 0.43 -6.14 3.60 0.61 -5.18 4.11 0.61 -4.28 4.52 0.54 -3.50 4.73 0.44 -2.98 4.80 0.28 -2.80 4.79 0.09 -2.99 4.76 -0.06 -3.47 4.66 -0.10 -4.16 4.42 0.07 -4.93 4.00 0.63 -5.67 3.39 1.76 -6.45 2.68 2.98 -7.30 2.14 3.69 -8.02 1.95 4.03 -8.47 2.08 4.40 -8.39 2.52 4.94 -7.70 2.79 5.84 -6.12 2.14 -5.03 -7.45 0.87 -4.48 -8.98 1.80 -4.10 -9.55 2.30 -3.45 -9.18 2.43 -2.18 -8.43 2.43 -0.66 -7.60 2.78 0.34 -6.71 3.32 0.72 -5.78 3.83 0.79 -4.85 4.27 0.73 -3.94 4.53 0.62 -3.15 4.60 0.47 -2.63 4.58 0.27 -2.43 4.55 0.05 -2.57 4.51 -0.12 -3.03 4.44 -0.17 -3.71 4.31 -0.04 -4.47 4.01 0.45 -5.21 3.45 1.52 -5.89 2.66 2.77 -6.61 1.82 3.52 -7.24 1.40 3.94 -7.65 1.32 4.26 -7.68 1.47 4.73 -7.18 1.40 6.89 -3.74 0.19 -4.91 -4.14 -0.10 -5.09 -7.17 0.10 -4.69 -8.03 1.30 -4.00 -8.34 1.94 -2.75 -8.11 2.14 -1.16 -7.59 2.36 0.14 -6.92 2.90 0.78 -6.11 3.47 1.00 -5.20 3.96 0.98 -4.25 4.27 0.86 -3.37 4.36 0.69 -2.65 4.31 0.49 -2.18 4.23 0.25 -1.98 4.18 0.00 -2.07 4.12 -0.18 -2.48 4.08 -0.24 -3.11 3.98 -0.14 -3.83 3.78 0.28 -4.53 3.32 1.22 -5.16 2.51 2.44 -5.80 1.43 3.32 -6.34 0.61 3.81 -6.70 0.04 4.14 -6.84 -0.30 4.59 -6.59 -0.54 7.03 -4.38 0.29 -3.99 -2.55 0.05 -4.60 -4.01 -0.52 -4.59 -5.11 -1.27 -4.19 -6.12 -1.74 -3.45 -7.47 0.86 -1.85 -7.22 1.47 -0.28 -6.75 2.09 0.70 -6.12 2.85 1.13 -5.28 3.48 1.23 -4.33 3.87 1.13 -3.45 4.02 0.95 -2.71 4.00 0.74 -2.11 3.87 0.51 -1.70 3.78 0.25 -1.50 3.71 0.00 -1.55 3.63 -0.19 -1.88 3.57 -0.27 -2.42 3.50 -0.19 -3.05 3.33 0.18 -3.68 2.94 0.95 -4.27 2.18 2.01 -4.84 1.08 2.94 -5.32 0.07 3.59 -5.70 -0.77 3.93 -5.95 -1.37 4.28 -5.96 -1.60 6.96 -4.93 0.32 -3.46 -1.61 -0.52 -4.07 -3.44 -1.05 -4.17 -4.65 -1.62 -3.63 -5.53 -2.02 -3.42 -6.28 -1.67 -2.25 -6.57 0.17 -0.79 -6.23 0.96 0.37 -5.76 1.81 1.06 -5.08 2.66 1.37 -4.24 3.26 1.37 -3.38 3.52 1.21 -2.66 3.58 1.00 -2.08 3.50 0.77 -1.60 3.37 0.53 -1.25 3.25 0.28 -1.06 3.18 0.05 -1.06 3.09 -0.12 -1.28 3.01 -0.21 -1.72 2.93 -0.17 -2.25 2.78 0.11 -2.79 2.44 0.71 -3.29 1.71 1.51 -3.77 0.67 2.22 -4.22 -0.30 2.74 -4.60 -1.02 3.17 -4.89 -1.57 3.56 -5.06 -1.82 -3.15 -4.78 -2.31 -1.55 -5.50 -0.31 -0.38 -5.19 0.49 0.60 -4.68 1.40 1.24 -3.97 2.25 1.48 -3.22 2.84 1.43 -2.55 3.08 1.26 -2.01 3.12 1.05 -1.56 3.05 0.83 -1.18 2.92 1.05 -2.80 0.34 1.49 -3.25 -0.54 1.85 -3.65 -1.21 2.20 -3.94 -1.60 -0.89 -4.47 -0.74 -0.06 -4.20 0.00 0.82 -3.64 0.89 1.38 -2.99 1.79 1.56 -2.40 2.43 1.50 -1.90 2.69 1.34 -1.48 2.74 1.14 -1.13 2.69 1.18 -2.76 -1.35 1.38 -3.02 -1.78 -0.02 -3.48 -1.10 0.57 -3.21 -0.44 1.55 -2.20 1.34 1.69 -1.77 2.03 1.63 -1.39 2.32 1.47 -1.06 2.41 0.82 -2.22 -1.87 1.90 0.18 -2.34 0.94 2.51 -2.43 1.59 1.99 -2.70 1.93 1.66 -2.66 2.05 1.58 -2.29 1.95 1.69 -1.68 0.67 2.74 -1.39 0.50 2.92 -1.52 0.49 3.04 -1.66 0.58 3.08 -1.79 0.69 3.07 -1.91 0.74 3.05 -2.01 0.70 3.02 -2.10 0.60 3.04 -2.26 0.49 3.14 -2.49 0.42 3.26 -2.68 0.50 3.28 -2.76 0.80 3.13 -2.61 1.25 2.93 -2.25 0.82 3.53 -2.21 1.33 3.36 -2.82 1.72 3.18 -3.03 1.79 3.15 -2.93 1.61 3.14 -2.69 1.31 3.14 -2.45 0.96 3.14 -2.26 0.64 3.17 -2.15 0.39 3.23 -2.12 0.28 3.30 -2.16 0.33 3.38 -2.27 0.52 3.42 -2.41 0.75 3.47 -2.56 0.94 3.56 -2.70 1.05 3.75 -2.86 1.09 4.09 -3.07 1.08 4.54 -3.30 1.02 4.99 -3.47 1.01 5.14 -3.43 1.17 4.71 -3.02 1.57 3.96 -2.23 1.70 4.67 -2.77 1.87 5.24 -3.27 1.71 5.45 -3.45 1.41 5.32 -3.42 1.07 4.90 -3.23 0.76 4.42 -2.94 0.50 4.05 -2.67 0.31 3.82 -2.48 0.24 3.74 -2.39 0.32 3.78 -2.40 0.52 3.84 -2.49 0.80 3.94 -2.67 1.11 4.16 -2.90 1.33 4.59 -3.15 1.41 5.23 -3.45 1.34 5.87 -3.72 1.15 6.30 -3.85 1.05 6.31 -3.74 1.18 5.70 -3.24 1.60 4.69 -2.19 1.93 5.56 -2.65 2.03 6.32 -3.29 1.83 6.51 -3.59 1.49 6.42 -3.66 1.12 6.06 -3.49 0.79 5.55 -3.15 0.54 5.03 -2.76 0.38 4.65 -2.43 0.33 4.46 -2.19 0.40 4.44 -2.11 0.54 4.50 -2.17 0.80 4.63 -2.37 1.14 4.90 -2.68 1.38 5.33 -3.04 1.43 5.83 -3.42 1.27 6.26 -3.69 1.07 6.48 -3.81 0.96 6.45 -3.68 1.06 5.98 -3.18 2.02 6.00 -3.10 1.81 6.00 -3.49 1.48 6.00 -3.60 1.14 6.00 -3.43 0.85 5.86 -3.05 0.64 5.48 -2.59 0.50 5.20 -2.15 0.45 5.06 -1.82 0.47 5.05 -1.68 0.55 5.13 -1.68 0.76 5.29 -1.81 1.03 5.47 -2.12 1.24 5.66 -2.57 1.29 5.85 -3.08 1.12 6.00 -3.43 0.94 6.00 -3.60 0.82 6.00 -3.50 0.91 5.78 -2.99 1.92 5.00 -2.81 1.76 5.00 -3.27 1.46 5.00 -3.40 1.13 5.00 -3.21 -2.18 -11.02 12.04 -3.00 -11.17 12.56 -2.19 -11.87 11.92 -3.02 -