# vtk DataFile Version 2.0
VTK from Matlab
ASCII
DATASET STRUCTURED_GRID
DIMENSIONS 9793 1 1
POINTS 9793 float
28.00 101.00 13.00 34.00 82.00 14.00 34.00 84.00 14.00 35.00 84.00 14.00 31.00 85.00 14.00 32.00 85.00 14.00 33.00 85.00 14.00 34.00 85.00 14.00 35.00 85.00 14.00 31.00 86.00 14.00 32.00 86.00 14.00 33.00 86.00 14.00 34.00 86.00 14.00 35.00 86.00 14.00 37.00 86.00 14.00 38.00 86.00 14.00 32.00 87.00 14.00 33.00 87.00 14.00 34.00 87.00 14.00 33.00 95.00 14.00 34.00 95.00 14.00 35.00 95.00 14.00 36.00 95.00 14.00 37.00 95.00 14.00 38.00 95.00 14.00 26.00 96.00 14.00 27.00 96.00 14.00 28.00 96.00 14.00 29.00 96.00 14.00 30.00 96.00 14.00 31.00 96.00 14.00 32.00 96.00 14.00 33.00 96.00 14.00 34.00 96.00 14.00 35.00 96.00 14.00 36.00 96.00 14.00 37.00 96.00 14.00 38.00 96.00 14.00 39.00 96.00 14.00 40.00 96.00 14.00 41.00 96.00 14.00 42.00 96.00 14.00 27.00 97.00 14.00 28.00 97.00 14.00 29.00 97.00 14.00 30.00 97.00 14.00 31.00 97.00 14.00 32.00 97.00 14.00 33.00 97.00 14.00 34.00 97.00 14.00 35.00 97.00 14.00 36.00 97.00 14.00 37.00 97.00 14.00 38.00 97.00 14.00 39.00 97.00 14.00 40.00 97.00 14.00 41.00 97.00 14.00 42.00 97.00 14.00 27.00 98.00 14.00 28.00 98.00 14.00 29.00 98.00 14.00 30.00 98.00 14.00 31.00 98.00 14.00 32.00 98.00 14.00 33.00 98.00 14.00 34.00 98.00 14.00 35.00 98.00 14.00 36.00 98.00 14.00 37.00 98.00 14.00 38.00 98.00 14.00 39.00 98.00 14.00 40.00 98.00 14.00 41.00 98.00 14.00 42.00 98.00 14.00 28.00 99.00 14.00 29.00 99.00 14.00 30.00 99.00 14.00 31.00 99.00 14.00 32.00 99.00 14.00 33.00 99.00 14.00 34.00 99.00 14.00 35.00 99.00 14.00 36.00 99.00 14.00 37.00 99.00 14.00 38.00 99.00 14.00 39.00 99.00 14.00 40.00 99.00 14.00 41.00 99.00 14.00 42.00 99.00 14.00 28.00 100.00 14.00 29.00 100.00 14.00 30.00 100.00 14.00 31.00 100.00 14.00 32.00 100.00 14.00 33.00 100.00 14.00 34.00 100.00 14.00 35.00 100.00 14.00 36.00 100.00 14.00 37.00 100.00 14.00 38.00 100.00 14.00 39.00 100.00 14.00 40.00 100.00 14.00 41.00 100.00 14.00 42.00 100.00 14.00 27.00 101.00 14.00 28.00 101.00 14.00 29.00 101.00 14.00 30.00 101.00 14.00 31.00 101.00 14.00 32.00 101.00 14.00 33.00 101.00 14.00 34.00 101.00 14.00 35.00 101.00 14.00 33.00 86.00 15.00 34.00 86.00 15.00 35.00 86.00 15.00 36.00 86.00 15.00 19.00 87.00 15.00 32.00 87.00 15.00 33.00 87.00 15.00 34.00 87.00 15.00 35.00 87.00 15.00 36.00 87.00 15.00 37.00 87.00 15.00 19.00 88.00 15.00 31.00 88.00 15.00 32.00 88.00 15.00 33.00 88.00 15.00 34.00 88.00 15.00 35.00 88.00 15.00 36.00 88.00 15.00 37.00 88.00 15.00 38.00 88.00 15.00 30.00 89.00 15.00 31.00 89.00 15.00 32.00 89.00 15.00 25.00 96.00 15.00 26.00 96.00 15.00 27.00 96.00 15.00 28.00 96.00 15.00 29.00 96.00 15.00 30.00 96.00 15.00 31.00 96.00 15.00 32.00 96.00 15.00 33.00 96.00 15.00 34.00 96.00 15.00 35.00 96.00 15.00 36.00 96.00 15.00 37.00 96.00 15.00 38.00 96.00 15.00 39.00 96.00 15.00 40.00 96.00 15.00 41.00 96.00 15.00 42.00 96.00 15.00 43.00 96.00 15.00 26.00 97.00 15.00 27.00 97.00 15.00 28.00 97.00 15.00 29.00 97.00 15.00 30.00 97.00 15.00 31.00 97.00 15.00 32.00 97.00 15.00 33.00 97.00 15.00 34.00 97.00 15.00 35.00 97.00 15.00 36.00 97.00 15.00 37.00 97.00 15.00 38.00 97.00 15.00 39.00 97.00 15.00 40.00 97.00 15.00 41.00 97.00 15.00 42.00 97.00 15.00 43.00 97.00 15.00 26.00 98.00 15.00 27.00 98.00 15.00 28.00 98.00 15.00 29.00 98.00 15.00 30.00 98.00 15.00 31.00 98.00 15.00 32.00 98.00 15.00 33.00 98.00 15.00 34.00 98.00 15.00 35.00 98.00 15.00 36.00 98.00 15.00 37.00 98.00 15.00 38.00 98.00 15.00 39.00 98.00 15.00 40.00 98.00 15.00 41.00 98.00 15.00 42.00 98.00 15.00 43.00 98.00 15.00 27.00 99.00 15.00 28.00 99.00 15.00 29.00 99.00 15.00 31.00 99.00 15.00 32.00 99.00 15.00 33.00 99.00 15.00 34.00 99.00 15.00 35.00 99.00 15.00 36.00 99.00 15.00 37.00 99.00 15.00 38.00 99.00 15.00 39.00 99.00 15.00 40.00 99.00 15.00 41.00 99.00 15.00 42.00 99.00 15.00 27.00 100.00 15.00 28.00 100.00 15.00 29.00 100.00 15.00 30.00 100.00 15.00 31.00 100.00 15.00 32.00 100.00 15.00 33.00 100.00 15.00 34.00 100.00 15.00 35.00 100.00 15.00 36.00 100.00 15.00 37.00 100.00 15.00 38.00 100.00 15.00 39.00 100.00 15.00 40.00 100.00 15.00 41.00 100.00 15.00 42.00 100.00 15.00 43.00 100.00 15.00 26.00 101.00 15.00 27.00 101.00 15.00 28.00 101.00 15.00 29.00 101.00 15.00 30.00 101.00 15.00 31.00 101.00 15.00 33.00 86.00 16.00 34.00 86.00 16.00 35.00 86.00 16.00 32.00 87.00 16.00 33.00 87.00 16.00 34.00 87.00 16.00 35.00 87.00 16.00 36.00 87.00 16.00 18.00 88.00 16.00 19.00 88.00 16.00 31.00 88.00 16.00 32.00 88.00 16.00 33.00 88.00 16.00 34.00 88.00 16.00 35.00 88.00 16.00 36.00 88.00 16.00 37.00 88.00 16.00 38.00 88.00 16.00 19.00 89.00 16.00 30.00 89.00 16.00 31.00 89.00 16.00 32.00 89.00 16.00 33.00 89.00 16.00 39.00 89.00 16.00 29.00 90.00 16.00 30.00 90.00 16.00 31.00 90.00 16.00 27.00 91.00 16.00 28.00 91.00 16.00 29.00 91.00 16.00 30.00 91.00 16.00 24.00 92.00 16.00 24.00 96.00 16.00 25.00 96.00 16.00 26.00 96.00 16.00 34.00 96.00 16.00 35.00 96.00 16.00 36.00 96.00 16.00 37.00 96.00 16.00 38.00 96.00 16.00 39.00 96.00 16.00 40.00 96.00 16.00 41.00 96.00 16.00 42.00 96.00 16.00 43.00 96.00 16.00 44.00 96.00 16.00 24.00 97.00 16.00 25.00 97.00 16.00 26.00 97.00 16.00 27.00 97.00 16.00 28.00 97.00 16.00 29.00 97.00 16.00 30.00 97.00 16.00 31.00 97.00 16.00 32.00 97.00 16.00 33.00 97.00 16.00 34.00 97.00 16.00 35.00 97.00 16.00 36.00 97.00 16.00 37.00 97.00 16.00 38.00 97.00 16.00 39.00 97.00 16.00 40.00 97.00 16.00 41.00 97.00 16.00 42.00 97.00 16.00 43.00 97.00 16.00 44.00 97.00 16.00 25.00 98.00 16.00 26.00 98.00 16.00 27.00 98.00 16.00 28.00 98.00 16.00 29.00 98.00 16.00 30.00 98.00 16.00 31.00 98.00 16.00 32.00 98.00 16.00 33.00 98.00 16.00 34.00 98.00 16.00 35.00 98.00 16.00 36.00 98.00 16.00 37.00 98.00 16.00 38.00 98.00 16.00 39.00 98.00 16.00 40.00 98.00 16.00 41.00 98.00 16.00 42.00 98.00 16.00 43.00 98.00 16.00 44.00 98.00 16.00 25.00 99.00 16.00 26.00 99.00 16.00 27.00 99.00 16.00 28.00 99.00 16.00 29.00 99.00 16.00 30.00 99.00 16.00 31.00 99.00 16.00 32.00 99.00 16.00 33.00 99.00 16.00 34.00 99.00 16.00 35.00 99.00 16.00 36.00 99.00 16.00 37.00 99.00 16.00 38.00 99.00 16.00 39.00 99.00 16.00 40.00 99.00 16.00 41.00 99.00 16.00 42.00 99.00 16.00 43.00 99.00 16.00 26.00 100.00 16.00 27.00 100.00 16.00 28.00 100.00 16.00 29.00 100.00 16.00 30.00 100.00 16.00 31.00 100.00 16.00 32.00 100.00 16.00 33.00 100.00 16.00 34.00 100.00 16.00 35.00 100.00 16.00 36.00 100.00 16.00 37.00 100.00 16.00 38.00 100.00 16.00 39.00 100.00 16.00 40.00 100.00 16.00 41.00 100.00 16.00 42.00 100.00 16.00 43.00 100.00 16.00 26.00 101.00 16.00 27.00 101.00 16.00 28.00 101.00 16.00 29.00 101.00 16.00 25.00 44.00 17.00 25.00 45.00 17.00 24.00 46.00 17.00 24.00 47.00 17.00 25.00 47.00 17.00 43.00 48.00 17.00 44.00 48.00 17.00 45.00 48.00 17.00 23.00 49.00 17.00 23.00 50.00 17.00 23.00 51.00 17.00 45.00 51.00 17.00 33.00 84.00 17.00 34.00 84.00 17.00 35.00 84.00 17.00 33.00 85.00 17.00 34.00 85.00 17.00 35.00 85.00 17.00 32.00 86.00 17.00 33.00 86.00 17.00 34.00 86.00 17.00 35.00 86.00 17.00 36.00 86.00 17.00 31.00 87.00 17.00 32.00 87.00 17.00 33.00 87.00 17.00 34.00 87.00 17.00 35.00 87.00 17.00 36.00 87.00 17.00 37.00 87.00 17.00 31.00 88.00 17.00 32.00 88.00 17.00 33.00 88.00 17.00 34.00 88.00 17.00 35.00 88.00 17.00 36.00 88.00 17.00 37.00 88.00 17.00 38.00 88.00 17.00 18.00 89.00 17.00 30.00 89.00 17.00 31.00 89.00 17.00 32.00 89.00 17.00 33.00 89.00 17.00 38.00 89.00 17.00 39.00 89.00 17.00 29.00 90.00 17.00 30.00 90.00 17.00 31.00 90.00 17.00 27.00 91.00 17.00 28.00 91.00 17.00 29.00 91.00 17.00 30.00 91.00 17.00 26.00 92.00 17.00 27.00 92.00 17.00 28.00 92.00 17.00 23.00 93.00 17.00 24.00 93.00 17.00 23.00 96.00 17.00 24.00 96.00 17.00 25.00 96.00 17.00 26.00 96.00 17.00 41.00 96.00 17.00 42.00 96.00 17.00 43.00 96.00 17.00 44.00 96.00 17.00 45.00 96.00 17.00 24.00 97.00 17.00 25.00 97.00 17.00 26.00 97.00 17.00 27.00 97.00 17.00 28.00 97.00 17.00 29.00 97.00 17.00 32.00 97.00 17.00 33.00 97.00 17.00 34.00 97.00 17.00 35.00 97.00 17.00 36.00 97.00 17.00 37.00 97.00 17.00 38.00 97.00 17.00 39.00 97.00 17.00 40.00 97.00 17.00 41.00 97.00 17.00 42.00 97.00 17.00 43.00 97.00 17.00 44.00 97.00 17.00 24.00 98.00 17.00 25.00 98.00 17.00 26.00 98.00 17.00 27.00 98.00 17.00 28.00 98.00 17.00 29.00 98.00 17.00 30.00 98.00 17.00 31.00 98.00 17.00 32.00 98.00 17.00 33.00 98.00 17.00 34.00 98.00 17.00 35.00 98.00 17.00 36.00 98.00 17.00 37.00 98.00 17.00 38.00 98.00 17.00 39.00 98.00 17.00 40.00 98.00 17.00 41.00 98.00 17.00 42.00 98.00 17.00 43.00 98.00 17.00 44.00 98.00 17.00 25.00 99.00 17.00 26.00 99.00 17.00 27.00 99.00 17.00 28.00 99.00 17.00 29.00 99.00 17.00 30.00 99.00 17.00 31.00 99.00 17.00 32.00 99.00 17.00 33.00 99.00 17.00 34.00 99.00 17.00 35.00 99.00 17.00 36.00 99.00 17.00 37.00 99.00 17.00 38.00 99.00 17.00 39.00 99.00 17.00 40.00 99.00 17.00 42.00 99.00 17.00 43.00 99.00 17.00 44.00 99.00 17.00 25.00 100.00 17.00 26.00 100.00 17.00 27.00 100.00 17.00 28.00 100.00 17.00 29.00 100.00 17.00 30.00 100.00 17.00 31.00 100.00 17.00 32.00 100.00 17.00 33.00 100.00 17.00 34.00 100.00 17.00 35.00 100.00 17.00 36.00 100.00 17.00 37.00 100.00 17.00 38.00 100.00 17.00 39.00 100.00 17.00 40.00 100.00 17.00 41.00 100.00 17.00 42.00 100.00 17.00 43.00 100.00 17.00 44.00 100.00 17.00 25.00 101.00 17.00 26.00 101.00 17.00 27.00 101.00 17.00 28.00 101.00 17.00 42.00 40.00 18.00 42.00 41.00 18.00 43.00 41.00 18.00 42.00 42.00 18.00 43.00 42.00 18.00 42.00 43.00 18.00 43.00 43.00 18.00 44.00 43.00 18.00 42.00 44.00 18.00 43.00 44.00 18.00 44.00 44.00 18.00 42.00 45.00 18.00 43.00 45.00 18.00 44.00 45.00 18.00 24.00 46.00 18.00 43.00 46.00 18.00 44.00 46.00 18.00 24.00 47.00 18.00 43.00 47.00 18.00 44.00 47.00 18.00 24.00 48.00 18.00 44.00 48.00 18.00 45.00 48.00 18.00 24.00 49.00 18.00 44.00 49.00 18.00 45.00 49.00 18.00 23.00 50.00 18.00 45.00 50.00 18.00 23.00 51.00 18.00 45.00 51.00 18.00 45.00 52.00 18.00 32.00 81.00 18.00 33.00 81.00 18.00 34.00 81.00 18.00 35.00 81.00 18.00 32.00 82.00 18.00 33.00 82.00 18.00 34.00 82.00 18.00 35.
[...]
POINT_DATA 9793
VECTORS vector_field float
1.23 5.00 -2.66 0.47 -3.28 2.78 0.49 -2.62 3.77 0.45 -2.74 3.57 0.59 -3.44 1.53 0.66 -2.96 3.02 0.62 -2.56 3.75 0.47 -2.33 3.95 0.34 -2.38 3.82 0.72 -3.11 1.84 0.77 -2.66 3.11 0.67 -2.26 3.70 0.49 -1.99 3.82 0.30 -1.99 3.73 0.57 -2.74 2.43 1.02 -3.24 1.13 0.86 -2.26 2.95 0.74 -1.89 3.36 0.56 -1.62 3.39 0.81 2.83 -1.74 0.82 3.00 -1.83 0.96 3.05 -1.87 1.11 3.01 -1.86 1.19 2.92 -1.82 1.13 2.79 -1.70 1.79 2.15 -2.02 1.92 2.05 -2.14 1.80 2.18 -2.14 1.49 2.40 -2.14 1.12 2.58 -2.19 0.82 2.72 -2.25 0.60 2.87 -2.32 0.54 3.06 -2.41 0.67 3.23 -2.50 0.91 3.32 -2.56 1.21 3.32 -2.58 1.46 3.29 -2.55 1.56 3.26 -2.48 1.46 3.21 -2.38 1.26 3.27 -2.25 1.10 3.34 -2.07 1.08 3.25 -1.80 1.65 3.38 -2.30 1.42 3.52 -2.42 1.09 3.56 -2.50 0.79 3.48 -2.56 0.57 3.41 -2.64 0.46 3.41 -2.73 0.46 3.50 -2.80 0.60 3.62 -2.84 0.88 3.73 -2.86 1.28 3.78 -2.87 1.68 3.85 -2.85 1.92 3.97 -2.83 1.94 4.12 -2.78 1.81 4.31 -2.67 1.62 4.45 -2.50 1.50 4.34 -2.19 1.55 5.36 -2.62 1.25 5.44 -2.83 0.91 5.21 -2.88 0.65 4.90 -2.87 0.50 4.57 -2.83 0.42 4.30 -2.80 0.44 4.17 -2.79 0.57 4.17 -2.76 0.84 4.22 -2.77 1.26 4.29 -2.81 1.72 4.48 -2.85 1.97 4.81 -2.88 1.98 5.21 -2.90 1.83 5.53 -2.89 1.63 5.65 -2.78 1.52 5.38 -2.49 1.32 6.23 -3.09 0.99 6.01 -3.12 0.73 5.68 -3.03 0.55 5.30 -2.84 0.45 4.96 -2.63 0.46 4.73 -2.50 0.58 4.63 -2.43 0.82 4.58 -2.47 1.21 4.62 -2.55 1.63 4.83 -2.66 1.85 5.19 -2.77 1.80 5.56 -2.87 1.61 5.86 -2.91 1.40 5.98 -2.85 1.31 5.78 -2.62 1.35 6.00 -3.08 1.06 5.93 -3.09 0.82 5.68 -2.92 0.64 5.38 -2.61 0.52 5.11 -2.28 0.49 4.92 -2.04 0.59 4.80 -1.93 0.80 4.73 -1.99 1.13 4.76 -2.13 1.49 4.89 -2.31 1.67 5.13 -2.51 1.61 5.38 -2.69 1.39 5.58 -2.78 1.17 5.66 -2.79 1.07 5.57 -2.61 1.59 5.00 -2.63 1.33 5.00 -2.92 1.06 5.00 -2.90 0.81 5.00 -2.66 0.64 5.00 -2.25 0.55 4.90 -1.82 0.53 4.77 -1.48 0.60 4.71 -1.31 0.77 4.70 -1.34 0.52 -2.64 4.53 0.32 -2.39 4.53 0.10 -2.47 4.48 -0.01 -2.88 4.31 -3.98 -2.85 -0.30 0.76 -2.71 4.16 0.56 -2.22 4.19 0.33 -1.95 4.15 0.09 -1.99 4.08 -0.06 -2.35 3.97 0.01 -2.89 3.66 -3.51 -2.35 -0.83 1.00 -2.73 3.61 0.81 -2.20 3.72 0.60 -1.78 3.68 0.37 -1.51 3.58 0.15 -1.50 3.48 -0.01 -1.77 3.42 -0.00 -2.23 3.19 0.29 -2.73 2.65 1.14 -2.65 2.87 1.02 -2.18 3.09 0.84 -1.74 3.13 1.49 2.30 -2.28 1.87 1.89 -2.43 2.00 1.77 -2.39 1.86 1.92 -2.19 1.55 2.24 -2.01 1.18 2.53 -1.99 0.82 2.76 -2.05 0.56 2.95 -2.14 0.46 3.15 -2.22 0.54 3.29 -2.32 0.73 3.34 -2.40 0.95 3.32 -2.47 1.12 3.28 -2.51 1.15 3.24 -2.51 1.06 3.20 -2.52 0.89 3.27 -2.53 0.76 3.36 -2.49 0.78 3.32 -2.35 0.98 3.09 -2.09 1.72 3.28 -2.61 1.72 3.26 -2.69 1.49 3.37 -2.69 1.16 3.47 -2.66 0.82 3.47 -2.63 0.53 3.45 -2.62 0.35 3.47 -2.64 0.32 3.53 -2.69 0.43 3.60 -2.76 0.68 3.67 -2.82 1.02 3.72 -2.89 1.33 3.80 -2.94 1.51 3.96 -2.98 1.55 4.22 -3.04 1.47 4.54 -3.08 1.33 4.84 -3.06 1.25 4.81 -2.86 1.33 4.33 -2.40 1.80 5.21 -2.79 1.63 5.49 -3.09 1.33 5.49 -3.20 0.97 5.20 -3.15 0.67 4.83 -3.02 0.44 4.48 -2.88 0.30 4.21 -2.77 0.29 4.07 -2.72 0.41 4.06 -2.72 0.67 4.10 -2.77 1.05 4.18 -2.88 1.45 4.37 -2.99 1.69 4.78 -3.11 1.73 5.32 -3.24 1.60 5.80 -3.35 1.39 6.07 -3.34 1.28 5.95 -3.16 1.35 5.25 -2.63 1.75 6.42 -3.25 1.41 6.37 -3.41 1.05 6.09 -3.34 0.50 5.26 -2.87 0.36 4.88 -2.59 0.34 4.65 -2.41 0.45 4.56 -2.34 0.67 4.55 -2.40 1.03 4.62 -2.56 1.42 4.85 -2.78 1.65 5.26 -2.99 1.65 5.72 -3.20 1.46 6.09 -3.34 1.24 6.27 -3.36 1.13 6.18 -3.18 1.74 6.00 -3.17 1.42 6.00 -3.36 1.10 6.00 -3.28 0.83 5.80 -3.00 0.61 5.46 -2.61 0.46 5.16 -2.22 0.43 4.97 -1.91 0.51 4.87 -1.79 0.67 4.87 -1.83 0.95 4.95 -2.01 1.28 5.11 -2.29 1.50 5.35 -2.63 1.50 5.59 -2.95 1.29 5.80 -3.16 1.08 5.88 -3.23 0.95 5.84 -3.09 0.99 5.48 -2.60 1.84 5.00 -2.49 1.68 5.00 -2.97 1.40 5.00 -3.18 1.09 5.00 -3.06 0.81 5.00 -2.73 0.62 5.00 -2.26 0.47 -2.63 4.58 0.27 -2.43 4.55 0.05 -2.57 4.51 0.69 -2.65 4.31 0.49 -2.18 4.23 0.25 -1.98 4.18 0.00 -2.07 4.12 -0.18 -2.48 4.08 -3.99 -2.55 0.05 -4.60 -4.01 -0.52 0.95 -2.71 4.00 0.74 -2.11 3.87 0.51 -1.70 3.78 0.25 -1.50 3.71 0.00 -1.55 3.63 -0.19 -1.88 3.57 -0.27 -2.42 3.50 -0.19 -3.05 3.33 -4.07 -3.44 -1.05 1.21 -2.66 3.58 1.00 -2.08 3.50 0.77 -1.60 3.37 0.53 -1.25 3.25 0.11 -2.79 2.44 1.43 -2.55 3.08 1.26 -2.01 3.12 1.05 -1.56 3.05 1.38 -2.99 1.79 1.56 -2.40 2.43 1.50 -1.90 2.69 1.34 -1.48 2.74 -0.02 -3.48 -1.10 0.94 2.51 -2.43 1.59 1.99 -2.70 1.93 1.66 -2.66 0.49 3.04 -1.66 0.58 3.08 -1.79 0.69 3.07 -1.91 0.74 3.05 -2.01 0.70 3.02 -2.10 0.60 3.04 -2.26 0.49 3.14 -2.49 0.42 3.26 -2.68 0.50 3.28 -2.76 0.80 3.13 -2.61 1.25 2.93 -2.25 0.82 3.53 -2.21 1.33 3.36 -2.82 1.72 3.18 -3.03 1.79 3.15 -2.93 1.61 3.14 -2.69 1.31 3.14 -2.45 0.96 3.14 -2.26 0.64 3.17 -2.15 0.39 3.23 -2.12 0.28 3.30 -2.16 0.33 3.38 -2.27 0.52 3.42 -2.41 0.75 3.47 -2.56 0.94 3.56 -2.70 1.05 3.75 -2.86 1.09 4.09 -3.07 1.08 4.54 -3.30 1.02 4.99 -3.47 1.01 5.14 -3.43 1.17 4.71 -3.02 1.57 3.96 -2.23 1.70 4.67 -2.77 1.87 5.24 -3.27 1.71 5.45 -3.45 1.41 5.32 -3.42 1.07 4.90 -3.23 0.76 4.42 -2.94 0.50 4.05 -2.67 0.31 3.82 -2.48 0.24 3.74 -2.39 0.32 3.78 -2.40 0.52 3.84 -2.49 0.80 3.94 -2.67 1.11 4.16 -2.90 1.33 4.59 -3.15 1.41 5.23 -3.45 1.34 5.87 -3.72 1.15 6.30 -3.85 1.05 6.31 -3.74 1.18 5.70 -3.24 1.60 4.69 -2.19 1.93 5.56 -2.65 2.03 6.32 -3.29 1.83 6.51 -3.59 1.49 6.42 -3.66 1.12 6.06 -3.49 0.79 5.55 -3.15 0.54 5.03 -2.76 0.38 4.65 -2.43 0.33 4.46 -2.19 0.40 4.44 -2.11 0.54 4.50 -2.17 0.80 4.63 -2.37 1.14 4.90 -2.68 1.38 5.33 -3.04 1.43 5.83 -3.42 1.27 6.26 -3.69 1.07 6.48 -3.81 0.96 6.45 -3.68 1.06 5.98 -3.18 2.02 6.00 -3.10 1.81 6.00 -3.49 1.48 6.00 -3.60 1.14 6.00 -3.43 0.85 5.86 -3.05 0.64 5.48 -2.59 0.50 5.20 -2.15 0.45 5.06 -1.82 0.47 5.05 -1.68 0.55 5.13 -1.68 0.76 5.29 -1.81 1.03 5.47 -2.12 1.24 5.66 -2.57 1.29 5.85 -3.08 1.12 6.00 -3.43 0.94 6.00 -3.60 0.82 6.00 -3.50 0.91 5.78 -2.99 1.92 5.00 -2.81 1.76 5.00 -3.27 1.46 5.00 -3.40 1.13 5.00 -3.21 -2.24 -1.95 2.34 -2.37 -2.37 2.42 -2.54 -1.78 1.75 -2.66 -2.27 1.70 -2.58 -3.44 2.51 3.07 -3.19 2.52 3.02 -2.10 2.23 2.76 -1.19 1.99 -2.64 -2.14 1.03 -2.70 -2.59 0.94 -2.73 -3.07 0.88 2.82 -1.57 1.19 0.38 -2.79 4.63 0.26 -2.69 4.62 0.09 -2.90 4.61 0.40 -2.60 4.47 0.25 -2.47 4.44 0.07 -2.65 4.42 0.57 -2.73 4.31 0.43 -2.29 4.23 0.24 -2.14 4.17 0.03 -2.29 4.14 -0.15 -2.73 4.13 0.80 -2.89 4.13 0.64 -2.27 3.99 0.45 -1.89 3.89 0.21 -1.74 3.83 -0.02 -1.86 3.78 -0.22 -2.26 3.75 -0.36 -2.88 3.75 0.90 -2.28 3.73 0.69 -1.78 3.58 0.46 -1.45 3.48 0.19 -1.32 3.40 -0.07 -1.40 3.34 -0.28 -1.75 3.30 -0.42 -2.28 3.29 -0.46 -2.93 3.28 -4.15 -2.93 0.01 1.21 -2.22 3.42 0.98 -1.71 3.28 0.74 -1.32 3.15 0.48 -1.06 3.06 -0.47 -2.24 2.80 -0.40 -2.83 2.71 1.50 -2.20 3.11 1.27 -1.67 3.02 1.04 -1.29 2.90 1.87 -2.95 2.53 1.76 -2.24 2.71 1.55 -1.70 2.74 1.34 -1.31 2.69 1.74 -2.95 1.48 1.93 -2.30 2.08 1.84 -1.76 2.34 -0.25 -3.40 -1.79 0.43 -3.29 -1.00 0.13 2.48 -2.38 0.98 2.26 -2.84 1.61 1.80 -3.02 1.96 1.52 -2.71 0.15 3.01 -2.69 0.28 3.13 -3.01 0.67 3.06 -3.04 1.26 2.86 -2.73 1.82 2.62 -2.24 0.72 3.37 -2.66 1.30 3.26 -3.25 1.76 3.16 -3.31 1.89 3.06 -2.98 1.75 2.86 -2.47 1.49 2.64 -1.97 0.58 2.63 -1.52 0.40 2.74 -1.56 0.34 2.87 -1.65 0.39 2.97 -1.78 0.48 3.05 -1.94 0.57 3.16 -2.18 0.62 3.37 -2.48 0.65 3.76 -2.88 0.71 4.36 -3.34 0.77 4.97 -3.73 0.83 5.29 -3.87 1.12 4.92 -3.50 1.65 4.13 -2.64 1.07 4.03 -2.23 1.64 4.53 -3.18 1.89 5.13 -3.64 1.77 5.30 -3.72 1.50 5.01 -3.52 1.19 4.39 -3.11 0.92 3.78 -2.64 0.67 3.45 -2.29 0.46 3.33 -2.09 0.33 3.34 -2.00 0.33 3.44 -2.03 0.41 3.56 -2.14 0.55 3.72 -2.33 0.74 3.97 -2.62 0.93 4.42 -3.00 1.07 5.11 -3.48 1.07 5.88 -3.96 0.95 6.43 -4.24 0.89 6.53 -4.22 1.11 5.96 -3.70 1.72 4.90 -2.46 1.91 5.43 -2.99 2.07 6.27 -3.66 1.88 6.50 -3.89 1.54 6.36 -3.86 1.18 5.90 -3.58 0.89 5.26 -3.08 0.68 4.73 -2.61 0.52 4.48 -2.25 0.43 4.45 -2.04 0.42 4.56 -1.98 0.47 4.73 -2.04 0.61 4.94 -2.20 0.83 5.20 -2.50 1.05 5.57 -2.95 1.14 6.02 -3.47 1.03 6.44 -3.93 0.82 6.65 -4.09 1.00 6.21 -3.53 1.60 5.12 -2.19 2.01 5.53 -2.58 2.06 6.00 -3.36 1.85 6.00 -3.72 1.53 6.00 -3.78 1.18 6.00 -3.54 0.91 5.88 -3.08 0.74 5.52 -2.55 0.61 5.35 -2.11 0.51 5.37 -1.84 0.45 5.53 -1.73 0.46 5.74 -1.73 0.56 5.91 -1.80 0.73 6.00 -2.03 0.92 6.00 -2.50 1.00 6.00 -3.08 0.89 6.00 -3.59 0.77 6.00 -3.86 0.73 6.00 -3.81 0.90 5.98 -3.26 1.47 5.03 -1.85 1.94 5.00 -2.02 1.97 5.00 -2.96 1.80 5.00 -3.45 1.51 5.00 -3.55 2.51 0.23 1.99 2.58 -0.14 2.09 2.38 0.30 2.06 2.72 -0.53 2.19 2.53 -0.02 2.17 2.80 -0.95 2.31 2.74 -0.36 2.21 2.41 -0.04 2.13 2.83 -1.41 2.44 2.87 -0.74 2.22 2.59 -0.38 2.11 2.80 -1.99 2.54 2.95 -1.17 2.22 2.71 -0.71 2.10 -2.35 -1.85 1.55 2.96 -1.75 2.21 2.75 -1.13 2.06 -2.47 -2.34 1.49 2.87 -2.49 2.21 2.84 -1.58 1.99 -2.56 -2.88 1.45 2.79 -2.20 1.93 2.56 -1.29 1.72 -2.60 -3.50 1.44 2.79 -2.84 1.83 2.64 -1.49 1.53 -2.58 -2.64 0.86 2.68 -1.73 1.35 -2.60 -3.16 0.83 2.69 -1.91 1.19 2.66 -2.06 1.03 0.57 -2.23 4.36 0.36 -2.08 4.36 0.16 -2.10 4.37 -0.06 -2.26 4.36 0.51 -2.41 4.31 0.34 -2.22 4.31 0.20 -2.22 4.30 0.02 -2.40 4.30 -0.22 -2.74 4.28 0.64 -2.94 4.26 0.46 -2.52 4.24 0.33 -2.28 4.20 0.21 -2.26 4.18 0.06 -2.44 4.19 -0.15 -2.81 4.20 0.60 -2.99 4.19 0.44 -2.52 4.12 0.33 -2.24 4.06 0.21 -2.18 4.03 0.06 -2.35 4.03 -0.13 -2.74 4.06 0.61 -2.87 4.06 0.47 -2.38 3.95 0.34 -2.07 3.87 0.20 -1.99 3.81 0.03 -2.15 3.80 -0.15 -2.53 3.83 -0.36 -3.11 3.87 0.84 -3.23 3.99 0.67 -2.59 3.85 0.53 -2.11 3.71 0.37 -1.80 3.60 0.18 -1.71 3.53 -0.02 -1.86 3.51 -0.22 -2.24 3.52 -0.40 -2.80 3.57 0.96 -2.75 3.71 0.78 -2.17 3.53 0.60 -1.74 3.38 0.40 -1.48 3.26 0.16 -1.40 3.20 -0.08 -1.52 3.16 -0.30 -1.87 3.16 -0.48 -2.40 3.20 -0.62 -3.05 3.25 1.11 -2.18 3.31 0.90 -1.70 3.14 0.67 -1.37 3.00 -0.54 -1.95 2.81 -0.66 -2.53 2.85 -0.71 -3.19 2.88 1.45 -2.20 3.08 1.22 -1.66 2.90 -0.76 -2.57 2.44 1.77 -2.35 2.81 1.52 -1.70 2.68 2.06 -2.57 2.43 1.81 -1.87 2.41 2.16 -2.82 1.76 2.08 -2.10 1.99 0.49 -3.62 -0.74 1.78 -2.88 0.46 0.29 -2.32 -2.16 1.21 -1.20 -2.82 1.04 0.69 -2.90 1.82 0.71 -2.58 -0.08 2.34 -2.74 0.83 2.06 -3.18 1.54 1.70 -3.23 0.00 2.66 -2.64 0.20 2.91 -3.13 0.70 2.94 -3.35 1.42 2.75 -3.14 2.02 2.51 -2.68 0.06 3.19 -1.99 0.55 3.20 -2.98 1.25 3.18 -3.54 1.80 3.12 -3.43 1.97 2.85 -2.89 1.83 2.43 -2.18 0.30 2.73 -1.80 0.32 2.98 -2.13 0.35 3.37 -2.64 0.44 4.02 -3.26 0.59 4.80 -3.87 0.78 5.26 -4.17 1.20 4.94 -3.84 1.87 4.15 -2.91 0.88 3.82 -2.46 1.55 4.34 -3.45 1.89 4.89 -3.90 1.82 4.95 -3.86 1.60 4.47 -3.46 1.35 3.72 -2.86 1.09 3.15 -2.32 0.82 2.93 -2.04 0.60 2.96 -1.93 0.44 3.13 -1.91 0.36 3.38 -1.98 0.36 3.62 -2.09 0.39 3.85 -2.24 0.47 4.09 -2.49 0.61 4.46 -2.89 0.77 5.07 -3.46 0.84 5.87 -4.09 0.81 6.49 -4.51 0.83 6.60 -4.56 1.19 6.01 -3.98 1.96 4.87 -2.57 1.22 4.11 -1.76 1.81 5.07 -3.15 2.01 6.00 -3.93 1.86 6.29 -4.13 1.57 6.09 -3.99 1.26 5.51 -3.57 1.02 4.84 -2.98 0.83 4.50 -2.54 0.66 4.54 -2.29 0.54 4.82 -2.19 0.45 5.20 -2.19 0.42 5.56 -2.24 0.46 5.81 -2.33 0.56 5.96 -2.52 0.70 6.11 -2.91 0.81 6.35 -3.47 0.79 6.65 -4.05 1.09 6.25 -3.70 1.85 5.05 -2.15 1.84 5.04 -2.45 2.01 6.00 -3.48 1.84 6.00 -3.87 1.55 6.00 -3.88 1.23 6.00 -3.59 1.01 5.79 -3.07 0.85 5.58 -2.58 0.70 5.66 -2.25 0.56 5.91 -2.10 0.44 6.00 -2.06 0.39 6.00 -2.08 0.42 6.00 -2.14 0.48 6.00 -2.29 0.58 6.00 -2.60 0.67 6.00 -3.13 0.65 6.00 -3.68 0.62 6.00 -4.03 0.70 6.00 -3.99 1.02 6.00 -3.31 1.66 4.89 -1.71 1.66 4.57 -1.45 1.86 5.00 -2.82 1.78 5.00 -3.48 1.53 5.00 -3.61 2.42 -0.21 1.85 2.44 -0.64 1.91 2.51 -1.01 2.06 2.52 -0.40 1.86 2.56 -1.43 2.13 2.64 -0.75 1.88 2.54 -1.95 2.21 2.72 -1.13 1.88 2.49 -2.59 2.26 2.75 -1.63 1.87 2.60 -1.02 1.73 2.69 -2.29 1.86 2.65 -1.43 1.67 -2.41 -2.61 1.23 2.58 -3.08 1.86 2.62 -1.97 1.62 -2.46 -3.19 1.19 2.61 -2.56 1.55 -2.44 -2.86 0.78 -2.42 -2.43 0.37 0.61 -1.04 3.98 0.35 -0.98 3.96 0.10 -1.01 3.97 -0.15 -1.14 4.00 -0.44 -1.35 4.06 0.82 -1.49 3.93 0.57 -1.31 3.89 0.34 -1.25 3.86 0.14 -1.28 3.85 -0.08 -1.41 3.88 -0.34 -1.62 3.92 -0.63 -1.93 3.96 1.02 -2.06 3.91 0.73 -1.76 3.86 0.50 -1.57 3.80 0.32 -1.50 3.75 0.16 -1.53 3.74 -0.01 -1.66 3.76 -0.24 -1.89 3.81 -0.52 -2.20 3.84 0.91 -2.32 3.85 0.64 -2.00 3.78 0.43 -1.78 3.69 0.29 -1.67 3.63 0.17 -1.69 3.60 0.03 -1.83 3.63 -0.16 -2.09 3.69 -0.42 -2.42 3.74 0.82 -2.49 3.78 0.56 -2.15 3.68 0.39 -1.89 3.57 0.27 -1.74 3.48 0.17 -1.73 3.44 0.04 -1.88 3.46 -0.13 -2.16 3.53 -0.36 -2.54 3.60 -0.62 -3.05 3.66 1.04 -3.06 3.78 0.75 -2.56 3.68 0.53 -2.18 3.55 0.38 -1.88 3.41 0.26 -1.71 3.30 0.15 -1.67 3.24 0.02 -1.82 3.26 -0.15 -2.11 3.32 -0.36 -2.54 3.40 -0.59 -3.09 3.49 1.00 -3.03 3.67 0.75 -2.49 3.52 0.57 -2.09 3.35 0.42 -1.77 3.19 0.29 -1.57 3.07 0.13 -1.53 3.01 -0.03 -1.66 3.01 -0.21 -1.97 3.06 -0.40 -2.41 3.14 -0.62 -2.97 3.24 1.04 -2.82 3.48 0.83 -2.28 3.28 0.66 -1.86 3.08 -0.48 -2.19 2.83 -0.67 -2.74 2.93 1.18 -2.46 3.18 0.99 -1.94 2.94 -0.75 -2.42 2.57 -0.88 -3.05 2.67 1.57 -2.70 3.03 1.35 -2.00 2.79 -0.95 -2.61 2.29 1.72 -2.15 2.61 -1.00 -2.74 1.97 2.08 -2.05 1.93 2.13 -3.32 1.11 2.30 -2.44 1.45 0.86 -3.47 -0.66 -0.73 -2.05 -2.98 -0.06 -2.49 -2.33 0.92 -1.37 -2.79 1.74 -1.49 -3.17 2.84 -0.64 -2.74 -0.53 1.11 -2.89 0.17 0.22 -3.09 1.07 -0.20 -2.80 0.72 0.78 -3.26 1.30 0.57 -3.27 2.22 0.61 -2.94 -0.63 2.67 -1.81 -0.37 2.26 -2.96 0.55 1.96 -3.43 1.45 1.61 -3.31 0.26 2.64 -3.21 0.91 2.77 -3.57 1.72 2.67 -3.48 2.35 2.43 -2.99 2.72 1.89 -2.08 -0.17 3.00 -2.08 0.33 3.01 -3.16 1.20 3.08 -3.66 1.83 2.91 -3.40 1.97 2.45 -2.75 0.15 2.48 -1.81 0.15 2.71 -2.09 0.19 3.07 -2.54 0.32 3.65 -3.19 0.55 4.48 -3.90 0.90 5.01 -4.29 1.51 4.76 -3.97 2.20 4.03 -3.08 2.54 3.22 -2.11 0.26 3.23 -1.21 0.67 3.56 -2.50 1.41 4.07 -3.53 1.84 4.48 -3.97 1.85 4.36 -3.80 1.67 3.76 -3.26 1.41 2.99 -2.64 1.12 2.54 -2.23 0.86 2.46 -2.07 0.65 2.70 -2.09 0.49 3.16 -2.19 0.39 3.73 -2.34 0.35 4.26 -2.47 0.32 4.58 -2.59 0.32 4.71 -2.75 0.40 4.83 -3.03 0.56 5.20 -3.54 0.70 5.83 -4.21 0.76 6.41 -4.71 0.94 6.47 -4.75 1.55 5.77 -3.99 2.27 4.59 -2.50 2.49 3.49 -1.35 0.97 3.74 -1.60 1.56 4.54 -2.98 1.88 5.37 -3.96 1.79 5.69 -4.20 1.56 5.44 -3.98 1.31 4.86 -3.47 1.11 4.38 -2.96 0.92 4.36 -2.68 0.76 4.82 -2.59 0.60 5.53 -2.61 0.47 6.21 -2.67 0.39 6.66 -2.73 0.36 6.87 -2.78 0.37 6.87 -2.88 0.43 6.77 -3.13 0.54 6.73 -3.59 0.60 6.83 -4.16 0.84 6.77 -4.51 1.38 5.99 -3.65 2.09 4.73 -1.99 1.41 4.27 -1.84 1.80 5.31 -3.29 1.75 5.92 -3.85 1.52 5.98 -3.86 1.28 5.76 -3.54 1.10 5.55 -3.08 0.94 5.64 -2.76 0.78 6.00 -2.61 0.48 6.00 -4.17 0.70 6.00 -4.10 1.19 5.78 -3.22 1.79 4.49 -1.51 1.26 3.65 -0.83 1.48 4.67 -2.15 1.62 5.00 -3.19 2.32 -1.21 1.88 2.36 -1.62 1.92 2.36 -2.14 1.93 2.49 -1.33 1.62 -2.02 -2.66 1.67 2.50 -1.84 1.60 2.46 -2.49 1.59 2.40 -1.95 1.37 -2.34 -3.04 1.04 2.42 -2.45 1.30 -2.57 -2.22 0.30 -2.64 -2.23 0.15 -2.61 -2.02 -0.77 0.61 0.04 3.71 0.36 0.09 3.68 0.12 0.04 3.71 -0.12 -0.08 3.80 1.20 -0.48 3.66 0.88 -0.26 3.53 0.59 -0.15 3.45 0.35 -0.14 3.41 0.13 -0.18 3.43 -0.10 -0.28 3.49 -0.35 -0.45 3.59 -0.63 -0.73 3.73 1.48 -0.93 3.58 1.13 -0.69 3.47 0.81 -0.54 3.38 0.55 -0.47 3.30 0.33 -0.46 3.25 0.14 -0.51 3.25 -0.05 -0.61 3.30 -0.28 -0.75 3.38 -0.55 -0.97 3.48 -0.81 -1.29 3.60 1.70 -1.47 3.55 1.37 -1.18 3.46 1.02 -0.99 3.37 0.72 -0.86 3.27 0.48 -0.81 3.17 0.30 -0.80 3.10 0.15 -0.85 3.09 -0.01 -0.94 3.14 -0.21 -1.08 3.22 -0.45 -1.28 3.32 -0.71 -1.57 3.42 -0.92 -1.94 3.52 1.57 -1.75 3.46 1.23 -1.48 3.39 0.89 -1.28 3.29 0.61 -1.16 3.16 0.40 -1.10 3.04 0.25 -1.09 2.96 0.14 -1.13 2.94 0.03 -1.22 2.98 -0.14 -1.37 3.07 -0.36 -1.58 3.17 -0.61 -1.87 3.28 -0.84 -2.22 3.38 1.43 -2.03 3.41 1.09 -1.76 3.32 0.77 -1.54 3.19 0.52 -1.40 3.05 0.34 -1.30 2.91 -0.10 -1.56 2.90 -0.31 -1.81 3.01 -0.55 -2.13 3.13 -0.78 -2.50 3.24 1.62 -2.66 3.41 1.30 -2.28 3.35 0.96 -1.97 3.24 0.68 -1.72 3.08 -0.54 -2.29 2.95 -0.76 -2.72 3.07 -0.92 -3.24 3.19 1.52 -2.92 3.36 1.21 -2.46 3.26 0.90 -2.11 3.11 0.65 -1.82 2.93 -0.57 -2.34 2.72 -0.78 -2.83 2.85 -0.95 -3.41 2.98 1.47 -3.08 3.27 1.18 -2.53 3.14 0.92 -2.13 2.94 -0.85 -2.79 2.57 -1.00 -3.41 2.72 1.50 -3.09 3.12 1.25 -2.45 2.93 1.02 -2.00 2.69 -0.93 -2.64 2.25 -1.07 -3.27 2.39 1.64 -2.91 2.86 1.42 -2.21 2.62 -1.14 -2.98 2.04 1.85 -2.54 2.49 1.99 -2.13 2.06 2.33 -2.28 1.33 2.31 -2.79 0.67 1.19 -3.11 -0.82 -1.37 -0.34 -3.09 -1.19 -1.87 -3.28 -0.37 -2.30 -2.64 -0.88 1.31 -2.83 -0.35 0.39 -3.25 0.71 -0.04 -2.92 1.11 0.81 -3.50 1.84 0.59 -3.57 2.87 0.65 -3.12 3.71 1.19 -1.76 -0.83 2.68 -1.47 -0.66 2.21 -2.93 0.19 1.88 -3.52 1.31 1.43 -3.26 0.53 2.30 -3.28 1.32 2.56 -3.71 2.19 2.61 -3.64 2.84 2.37 -3.06 3.23 1.97 -2.13 -0.42 2.87 -1.95 0.09 2.79 -3.17 1.09 2.81 -3.62 1.78 2.48 -3.29 1.87 1.91 -2.66 0.15 2.41 -2.14 0.15 2.52 -2.30 0.21 2.81 -2.63 0.35 3.30 -3.18 0.65 4.02 -3.87 1.19 4.56 -4.28 2.01 4.35 -3.91 2.62 3.80 -3.09 3.03 3.10 -2.10 2.97 2.45 -1.26 0.07 3.04 -1.13 0.39 3.25 -2.37 1.16 3.67 -3.38 1.71 3.90 -3.79 1.79 3.60 -3.58 1.60 2.97 -3.07 1.33 2.31 -2.59 1.06 1.99 -2.33 0.83 2.08 -2.31 0.65 2.58 -2.45 0.53 3.47 -2.69 0.44 4.60 -2.95 0.36 5.49 -3.15 0.30 5.80 -3.24 0.27 5.67 -3.29 0.32 5.41 -3.44 0.47 5.37 -3.77 0.66 5.69 -4.33 0.85 6.11 -4.82 1.28 6.03 -4.75 2.08 5.28 -3.78 2.57 4.17 -2.39 2.64 3.13 -1.39 0.69 3.35 -1.39 1.14 3.92 -2.53 1.62 4.52 -3.57 1.67 4.74 -3.93 1.51 4.51 -3.73 1.29 4.06 -3.31 1.10 3.89 -3.03 0.95 4.28 -2.97 0.81 5.18 -3.05 0.64 6.23 -3.18 0.50 6.98 -3.29 0.40 7.00 -3.37 0.32 7.00 -3.41 0.28 7.00 -3.45 0.28 7.00 -3.57 0.35 7.00 -3.87 0.46 6.86 -4.33 0.64 6.78 -4.69 1.03 6.43 -4.54 1.81 5.43 -3.37 2.26 4.13 -1.80 0.95 3.52 -1.33 1.30 4.26 -2.48 1.50 4.87 -3.41 1.42 5.08 -3.58 1.27 5.05 -3.37 1.13 5.19 -3.13 1.00 5.66 -3.04 0.78 6.00 -4.09 1.48 5.12 -2.87 1.92 3.83 -1.27 0.94 3.53 -1.26 1.16 4.35 -2.35 2.23 -1.94 1.68 2.24 -2.55 1.66 -2.70 -3.66 0.55 -2.83 -3.85 0.47 -2.60 -2.26 0.45 -2.93 -4.06 0.39 2.58 -1.93 0.79 -2.75 -2.41 0.23 -3.01 -4.28 0.23 2.83 -1.70 0.64 -2.89 -2.51 -0.09 3.14 -1.40 0.42 -3.01 -2.56 -0.46 3.39 -1.36 0.50 -3.12 -2.55 -0.84 3.70 -3.16 0.47 3.71 -1.26 0.66 0.88 0.48 3.42 0.62 0.65 3.28 0.39 0.68 3.24 0.18 0.62 3.28 -0.01 0.47 3.40 1.51 0.17 3.37 1.17 0.37 3.14 2.02 -0.07 3.39 1.79 -0.01 3.21 1.45 0.10 3.03 -0.80 -0.66 3.29 2.03 -0.14 3.33 1.93 -0.25 3.15 1.66 -0.23 3.01 1.33 -0.16 2.88 -0.72 -0.90 3.01 -0.83 -1.15 3.17 1.87 -0.29 3.55 1.92 -0.50 3.19 1.78 -0.55 3.03 1.50 -0.52 2.91 -0.77 -1.46 2.98 -0.72 -1.73 3.15 1.76 -0.84 3.37 1.81 -0.93 3.09 1.63 -0.91 2.96 1.33 -0.85 2.84 -0.75 -1.81 2.83 -0.75 -2.11 2.97 1.69 -1.46 3.20 1.72 -1.39 3.00 1.50 -1.29 2.88 -0.76 -2.16 2.66 -0.82 -2.50 2.80 1.68 -2.07 3.05 1.66 -1.86 2.91 1.40 -1.66 2.81 -0.81 -2.44 2.46 -0.89 -2.87 2.60 1.69 -2.66 2.91 1.62 -2.27 2.83 1.34 -1.96 2.72 -0.88 -2.62 2.21 -0.98 -3.14 2.38 1.73 -3.18 2.76 1.63 -2.59 2.71 1.34 -2.16 2.58 -0.99 -2.66 1.91 -1.08 -3.22 2.09 1.72 -2.78 2.53 1.45 -2.22 2.36 -1.18 -3.14 1.76 1.88 -2.77 2.25 1.63 -2.09 2.04 -1.28 -2.91 1.40 2.10 -2.55 1.88 2.26 -2.24 1.46 2.44 -2.60 0.60 -1.31 -3.54 -2.85 1.29 -2.65 -1.22 -1.54 0.50 -2.83 -1.51 -1.20 -3.41 -0.67 -1.80 -2.92 0.98 -0.69 -2.84 -1.19 1.69 -2.41 -0.82 0.69 -3.16 0.91 0.79 -3.19 1.77 0.88 -3.69 2.74 0.75 -3.69 3.65 0.88 -3.01 4.21 1.37 -1.47 -1.03 2.80 -1.08 -0.99 2.21 -2.50 -0.20 1.69 -3.29 0.97 1.97 -3.39 1.94 2.37 -3.79 2.85 2.54 -3.59 3.43 2.31 -2.90 3.55 1.96 -2.03 -0.65 2.75 -1.64 -0.19 2.54 -2.90 0.90 2.36 -3.42 1.61 1.91 -3.15 0.26 2.51 -2.65 0.23 2.49 -2.64 0.26 2.46 -2.68 0.36 2.59 -2.86 0.56 2.93 -3.27 0.92 3.45 -3.82 1.63 3.92 -4.15 2.53 3.84 -3.74 3.14 3.49 -2.91 3.36 2.98 -2.02 3.16 2.51 -1.26 0.07 2.97 -2.11 0.82 3.16 -3.08 1.42 3.22 -3.49 1.57 2.82 -3.35 1.42 2.22 -2.97 1.17 1.70 -2.65 0.94 1.53 -2.55 0.75 1.80 -2.65 0.65 2.60 -2.92 0.59 3.97 -3.32 0.51 5.59 -3.71 0.41 6.51 -3.91 0.32 6.69 -3.95 0.27 6.37 -3.93 0.30 5.81 -3.92 0.48 5.37 -4.06 0.75 5.31 -4.41 1.13 5.48 -4.75 1.80 5.31 -4.48 2.54 4.50 -3.38 2.87 3.73 -2.24 2.77 2.92 -1.41 0.67 3.37 -2.08 1.10 3.70 -2.92 1.34 3.78 -3.37 1.29 3.57 -3.35 1.13 3.31 -3.16 1.00 3.41 -3.13 0.92 4.15 -3.30 0.85 5.49 -3.56 0.71 6.67 -3.78 0.57 7.00 -3.94 0.45 7.00 -4.04 0.25 7.00 -4.08 0.21 7.00 -4.11 0.27 7.00 -4.25 0.46 6.62 -4.53 0.80 6.28 -4.71 1.46 5.64 -4.24 2.21 4.60 -2.87 2.41 3.57 -1.65 0.64 3.40 -1.71 0.91 3.81 -2.49 1.07 4.03 -2.92 1.08 4.23 -3.04 1.06 4.71 -3.13 1.78 4.20 -2.30 -2.34 -2.73 0.85 -2.52 -3.02 0.80 2.46 -3.67 1.05 -2.67 -3.34 0.73 2.69 -3.65 1.03 -2.68 -2.31 0.64 -2.83 -3.70 0.56 2.94 -3.57 0.95 2.87 -1.67 0.99 -2.95 -2.56 0.26 -2.98 -4.07 