# vtk DataFile Version 2.0
VTK from Matlab
ASCII
DATASET STRUCTURED_GRID
DIMENSIONS 10964 1 1
POINTS 10964 float
36.00 100.00 9.00 36.00 100.00 10.00 37.00 100.00 10.00 29.00 76.00 11.00 30.00 76.00 11.00 31.00 76.00 11.00 29.00 77.00 11.00 30.00 77.00 11.00 31.00 77.00 11.00 29.00 78.00 11.00 33.00 78.00 11.00 39.00 79.00 11.00 33.00 80.00 11.00 34.00 80.00 11.00 39.00 80.00 11.00 33.00 81.00 11.00 34.00 81.00 11.00 34.00 82.00 11.00 28.00 84.00 11.00 33.00 88.00 11.00 33.00 89.00 11.00 33.00 90.00 11.00 25.00 91.00 11.00 25.00 100.00 11.00 34.00 100.00 11.00 35.00 100.00 11.00 36.00 100.00 11.00 37.00 100.00 11.00 33.00 72.00 12.00 35.00 73.00 12.00 35.00 79.00 12.00 36.00 79.00 12.00 31.00 80.00 12.00 33.00 80.00 12.00 34.00 80.00 12.00 35.00 80.00 12.00 28.00 81.00 12.00 33.00 81.00 12.00 34.00 81.00 12.00 35.00 81.00 12.00 36.00 81.00 12.00 37.00 81.00 12.00 28.00 82.00 12.00 33.00 82.00 12.00 34.00 82.00 12.00 35.00 82.00 12.00 36.00 82.00 12.00 37.00 82.00 12.00 25.00 83.00 12.00 28.00 83.00 12.00 29.00 83.00 12.00 34.00 83.00 12.00 35.00 83.00 12.00 36.00 83.00 12.00 37.00 83.00 12.00 38.00 83.00 12.00 23.00 84.00 12.00 24.00 84.00 12.00 25.00 84.00 12.00 26.00 84.00 12.00 27.00 84.00 12.00 28.00 84.00 12.00 36.00 84.00 12.00 37.00 84.00 12.00 38.00 84.00 12.00 39.00 84.00 12.00 23.00 85.00 12.00 24.00 85.00 12.00 25.00 85.00 12.00 26.00 85.00 12.00 27.00 85.00 12.00 28.00 85.00 12.00 30.00 85.00 12.00 34.00 85.00 12.00 36.00 85.00 12.00 37.00 85.00 12.00 38.00 85.00 12.00 39.00 85.00 12.00 23.00 86.00 12.00 24.00 86.00 12.00 25.00 86.00 12.00 26.00 86.00 12.00 27.00 86.00 12.00 30.00 86.00 12.00 31.00 86.00 12.00 34.00 86.00 12.00 35.00 86.00 12.00 36.00 86.00 12.00 37.00 86.00 12.00 38.00 86.00 12.00 39.00 86.00 12.00 24.00 87.00 12.00 25.00 87.00 12.00 30.00 87.00 12.00 33.00 87.00 12.00 34.00 87.00 12.00 35.00 87.00 12.00 36.00 87.00 12.00 37.00 87.00 12.00 39.00 87.00 12.00 23.00 88.00 12.00 24.00 88.00 12.00 25.00 88.00 12.00 26.00 88.00 12.00 27.00 88.00 12.00 28.00 88.00 12.00 29.00 88.00 12.00 30.00 88.00 12.00 34.00 88.00 12.00 35.00 88.00 12.00 36.00 88.00 12.00 38.00 88.00 12.00 39.00 88.00 12.00 27.00 89.00 12.00 28.00 89.00 12.00 29.00 89.00 12.00 30.00 89.00 12.00 31.00 89.00 12.00 32.00 89.00 12.00 33.00 89.00 12.00 34.00 89.00 12.00 35.00 89.00 12.00 39.00 89.00 12.00 23.00 90.00 12.00 24.00 90.00 12.00 29.00 90.00 12.00 30.00 90.00 12.00 31.00 90.00 12.00 32.00 90.00 12.00 33.00 90.00 12.00 23.00 91.00 12.00 25.00 100.00 12.00 26.00 100.00 12.00 27.00 100.00 12.00 28.00 100.00 12.00 29.00 100.00 12.00 30.00 100.00 12.00 31.00 100.00 12.00 32.00 100.00 12.00 33.00 100.00 12.00 34.00 100.00 12.00 35.00 100.00 12.00 36.00 100.00 12.00 37.00 100.00 12.00 30.00 58.00 13.00 31.00 58.00 13.00 32.00 58.00 13.00 36.00 73.00 13.00 37.00 73.00 13.00 38.00 85.00 13.00 24.00 86.00 13.00 25.00 86.00 13.00 36.00 86.00 13.00 38.00 86.00 13.00 24.00 87.00 13.00 25.00 87.00 13.00 35.00 87.00 13.00 37.00 87.00 13.00 38.00 87.00 13.00 23.00 88.00 13.00 24.00 88.00 13.00 25.00 88.00 13.00 31.00 88.00 13.00 33.00 88.00 13.00 35.00 88.00 13.00 36.00 88.00 13.00 38.00 88.00 13.00 39.00 88.00 13.00 22.00 89.00 13.00 23.00 89.00 13.00 24.00 89.00 13.00 27.00 89.00 13.00 29.00 89.00 13.00 30.00 89.00 13.00 31.00 89.00 13.00 32.00 89.00 13.00 33.00 89.00 13.00 34.00 89.00 13.00 35.00 89.00 13.00 37.00 89.00 13.00 39.00 89.00 13.00 40.00 89.00 13.00 41.00 89.00 13.00 22.00 90.00 13.00 23.00 90.00 13.00 27.00 90.00 13.00 28.00 90.00 13.00 29.00 90.00 13.00 30.00 90.00 13.00 31.00 90.00 13.00 32.00 90.00 13.00 33.00 90.00 13.00 34.00 90.00 13.00 30.00 91.00 13.00 31.00 91.00 13.00 32.00 91.00 13.00 33.00 91.00 13.00 24.00 100.00 13.00 25.00 100.00 13.00 26.00 100.00 13.00 27.00 100.00 13.00 28.00 100.00 13.00 29.00 100.00 13.00 30.00 100.00 13.00 31.00 100.00 13.00 32.00 100.00 13.00 33.00 100.00 13.00 34.00 100.00 13.00 35.00 100.00 13.00 36.00 100.00 13.00 31.00 57.00 14.00 30.00 59.00 14.00 30.00 60.00 14.00 30.00 61.00 14.00 28.00 71.00 14.00 29.00 71.00 14.00 30.00 71.00 14.00 39.00 86.00 14.00 23.00 88.00 14.00 24.00 88.00 14.00 38.00 88.00 14.00 23.00 89.00 14.00 25.00 89.00 14.00 37.00 89.00 14.00 38.00 89.00 14.00 39.00 89.00 14.00 41.00 89.00 14.00 22.00 90.00 14.00 23.00 90.00 14.00 25.00 90.00 14.00 26.00 90.00 14.00 32.00 90.00 14.00 33.00 90.00 14.00 34.00 90.00 14.00 35.00 90.00 14.00 36.00 90.00 14.00 40.00 90.00 14.00 42.00 90.00 14.00 20.00 91.00 14.00 21.00 91.00 14.00 22.00 91.00 14.00 25.00 91.00 14.00 26.00 91.00 14.00 27.00 91.00 14.00 28.00 91.00 14.00 29.00 91.00 14.00 30.00 91.00 14.00 31.00 91.00 14.00 32.00 91.00 14.00 33.00 91.00 14.00 34.00 91.00 14.00 42.00 91.00 14.00 28.00 92.00 14.00 29.00 92.00 14.00 30.00 92.00 14.00 32.00 92.00 14.00 29.00 99.00 14.00 30.00 99.00 14.00 24.00 100.00 14.00 25.00 100.00 14.00 26.00 100.00 14.00 27.00 100.00 14.00 28.00 100.00 14.00 29.00 100.00 14.00 30.00 100.00 14.00 31.00 100.00 14.00 32.00 100.00 14.00 33.00 100.00 14.00 34.00 100.00 14.00 35.00 100.00 14.00 36.00 100.00 14.00 32.00 56.00 15.00 47.00 57.00 15.00 31.00 58.00 15.00 48.00 59.00 15.00 49.00 59.00 15.00 50.00 59.00 15.00 30.00 60.00 15.00 30.00 61.00 15.00 30.00 62.00 15.00 29.00 70.00 15.00 30.00 70.00 15.00 40.00 86.00 15.00 40.00 87.00 15.00 22.00 88.00 15.00 40.00 88.00 15.00 23.00 89.00 15.00 39.00 89.00 15.00 23.00 90.00 15.00 21.00 91.00 15.00 22.00 91.00 15.00 23.00 91.00 15.00 24.00 91.00 15.00 41.00 91.00 15.00 19.00 92.00 15.00 20.00 92.00 15.00 30.00 92.00 15.00 31.00 92.00 15.00 32.00 92.00 15.00 33.00 92.00 15.00 34.00 92.00 15.00 42.00 92.00 15.00 42.00 97.00 15.00 29.00 99.00 15.00 30.00 99.00 15.00 32.00 99.00 15.00 33.00 99.00 15.00 24.00 100.00 15.00 25.00 100.00 15.00 26.00 100.00 15.00 27.00 100.00 15.00 28.00 100.00 15.00 29.00 100.00 15.00 30.00 100.00 15.00 31.00 100.00 15.00 32.00 100.00 15.00 33.00 100.00 15.00 34.00 100.00 15.00 35.00 100.00 15.00 36.00 100.00 15.00 11.00 57.00 16.00 12.00 58.00 16.00 13.00 58.00 16.00 47.00 58.00 16.00 12.00 59.00 16.00 13.00 59.00 16.00 48.00 59.00 16.00 30.00 60.00 16.00 30.00 61.00 16.00 30.00 62.00 16.00 29.00 63.00 16.00 31.00 63.00 16.00 29.00 69.00 16.00 30.00 69.00 16.00 34.00 69.00 16.00 37.00 70.00 16.00 41.00 86.00 16.00 41.00 87.00 16.00 41.00 88.00 16.00 21.00 89.00 16.00 22.00 90.00 16.00 22.00 91.00 16.00 18.00 92.00 16.00 19.00 92.00 16.00 20.00 92.00 16.00 42.00 92.00 16.00 43.00 92.00 16.00 18.00 93.00 16.00 43.00 93.00 16.00 44.00 93.00 16.00 42.00 97.00 16.00 26.00 100.00 16.00 27.00 100.00 16.00 28.00 100.00 16.00 29.00 100.00 16.00 30.00 100.00 16.00 31.00 100.00 16.00 32.00 100.00 16.00 33.00 100.00 16.00 34.00 100.00 16.00 35.00 100.00 16.00 36.00 100.00 16.00 11.00 57.00 17.00 12.00 57.00 17.00 11.00 58.00 17.00 12.00 58.00 17.00 13.00 58.00 17.00 12.00 59.00 17.00 13.00 59.00 17.00 30.00 61.00 17.00 31.00 61.00 17.00 31.00 62.00 17.00 30.00 63.00 17.00 31.00 63.00 17.00 28.00 65.00 17.00 29.00 65.00 17.00 31.00 65.00 17.00 55.00 67.00 17.00 29.00 68.00 17.00 30.00 68.00 17.00 35.00 68.00 17.00 42.00 86.00 17.00 42.00 87.00 17.00 42.00 88.00 17.00 20.00 89.00 17.00 41.00 89.00 17.00 42.00 89.00 17.00 21.00 90.00 17.00 41.00 90.00 17.00 17.00 91.00 17.00 20.00 91.00 17.00 21.00 91.00 17.00 18.00 92.00 17.00 19.00 92.00 17.00 20.00 92.00 17.00 21.00 92.00 17.00 22.00 92.00 17.00 18.00 93.00 17.00 19.00 93.00 17.00 42.00 93.00 17.00 43.00 93.00 17.00 44.00 93.00 17.00 43.00 96.00 17.00 42.00 98.00 17.00 30.00 62.00 18.00 30.00 65.00 18.00 43.00 86.00 18.00 43.00 87.00 18.00 20.00 89.00 18.00 20.00 90.00 18.00 42.00 90.00 18.00 47.00 90.00 18.00 20.00 91.00 18.00 20.00 92.00 18.00 21.00 92.00 18.00 18.00 93.00 18.00 19.00 93.00 18.00 42.00 93.00 18.00 43.00 93.00 18.00 44.00 93.00 18.00 18.00 94.00 18.00 42.00 94.00 18.00 43.00 96.00 18.00 41.00 99.00 18.00 22.00 100.00 18.00 15.00 49.00 19.00 16.00 49.00 19.00 14.00 50.00 19.00 15.00 50.00 19.00 16.00 50.00 19.00 13.00 51.00 19.00 14.00 51.00 19.00 15.00 51.00 19.00 16.00 51.00 19.00 12.00 52.00 19.00 13.00 52.00 19.00 14.00 52.00 19.00 15.00 52.00 19.00 12.00 53.00 19.00 13.00 53.00 19.00 14.00 53.00 19.00 12.00 54.00 19.00 19.00 87.00 19.00 43.00 87.00 19.00 43.00 88.00 19.00 43.00 89.00 19.00 20.00 91.00 19.00 17.00 92.00 19.00 18.00 93.00 19.00 19.00 93.00 19.00 21.00 93.00 19.00 22.00 93.00 19.00 42.00 93.00 19.00 43.00 93.00 19.00 44.00 93.00 19.00 18.00 94.00 19.00 27.00 94.00 19.00 42.00 94.00 19.00 43.00 95.00 19.00 43.00 96.00 19.00 42.00 97.00 19.00 27.00 25.00 20.00 15.00 47.00 20.00 16.00 47.00 20.00 14.00 48.00 20.00 15.00 48.00 20.00 16.00 48.00 20.00 17.00 48.00 20.00 13.00 49.00 20.00 14.00 49.00 20.00 15.00 49.00 20.00 16.00 49.00 20.00 17.00 49.00 20.00 12.00 50.00 20.00 13.00 50.00 20.00 14.00 50.00 20.00 15.00 50.00 20.00 16.00 50.00 20.00 17.00 50.00 20.00 12.00 51.00 20.00 13.00 51.00 20.00 14.00 51.00 20.00 15.00 51.00 20.00 16.00 51.00 20.00 17.00 51.00 20.00 11.00 52.00 20.00 12.00 52.00 20.00 13.00 52.00 20.00 14.00 52.00 20.00 15.00 52.00 20.00 16.00 52.00 20.00 17.00 52.00 20.00 11.00 53.00 20.00 12.00 53.00 20.00 13.00 53.00 20.00 14.00 53.00 20.00 15.00 53.00 20.00 16.00 53.00 20.00 11.00 54.00 20.00 12.00 54.00 20.00 13.00 54.00 20.00 14.00 54.00 20.00 15.00 54.00 20.00 10.00 55.00 20.00 11.00 55.00 20.00 12.00 55.00 20.00 13.00 55.00 20.00 10.00 56.00 20.00 11.00 56.00 20.00 12.00 56.00 20.00 7.00 64.00 20.00 8.00 64.00 20.00 7.00 65.00 20.00 8.00 65.00 20.00 8.00 66.00 20.00 7.00 67.00 20.00 8.00 67.00 20.00 44.00 87.00 20.00 44.00 88.00 20.00 17.00 92.00 20.00 20.00 92.00 20.00 18.00 93.00 20.00 19.00 93.00 20.00 20.00 93.00 20.00 21.00 93.00 20.00 19.00 94.00 20.00 23.00 94.00 20.00 36.00 94.00 20.00 37.00 94.00 20.00 42.00 94.00 20.00 44.00 94.00 20.00 43.00 95.00 20.00 30.00 96.00 20.00 42.00 96.00 20.00 43.00 96.00 20.00 42.00 97.00 20.00 41.00 98.00 20.00 22.00 99.00 20.00 40.00 99.00 20.00 14.00 46.00 21.00 15.00 46.00 21.00 16.00 46.00 21.00 17.00 46.00 21.00 13.00 47.00 21.00 14.00 47.00 21.00 15.00 47.00 2
[...]
POINT_DATA 10964
VECTORS vector_field float
1.30 6.00 -4.08 1.13 6.00 -3.84 0.39 6.00 -2.89 -9.50 -7.00 5.24 -2.54 -3.17 1.95 0.24 -4.90 0.50 -11.94 -5.97 6.66 -6.52 -3.59 2.84 -0.70 -4.86 0.30 -7.23 -3.10 3.06 2.92 -2.79 0.38 0.74 -1.04 -5.46 6.50 -2.34 0.98 6.27 -1.23 1.46 8.20 -1.53 5.57 -0.46 0.70 -2.99 -0.93 0.04 -2.99 -0.47 0.02 -2.96 0.21 -1.00 -3.00 -1.75 0.25 -2.93 -1.69 -0.12 -2.93 -1.25 0.05 -2.87 -0.09 -0.35 -2.99 -0.60 6.00 -2.20 -0.33 6.00 -1.49 1.55 6.00 -1.76 1.33 6.00 -2.71 0.47 6.00 -2.67 3.77 -7.17 -3.71 4.35 -5.24 -7.50 4.79 -2.98 1.20 5.46 -2.61 1.04 -0.45 -1.12 8.60 -0.14 -2.72 4.04 -0.75 -2.09 4.39 4.53 -1.20 0.64 -0.39 -1.72 6.92 4.43 -0.24 0.39 5.24 -0.76 0.37 6.24 -1.14 0.28 8.86 -1.03 0.68 8.34 -1.19 0.65 -7.11 -5.59 2.35 3.10 -0.63 1.07 5.50 -0.33 0.56 5.83 -0.87 0.31 4.05 -0.87 0.22 7.75 -1.79 0.15 -5.98 -5.58 1.92 -6.38 -5.22 1.83 -2.79 -1.91 0.59 3.50 -0.91 0.58 3.78 -0.93 0.10 -2.16 -0.82 -3.99 -2.25 -0.96 -4.00 7.59 -1.54 1.05 -7.69 -6.03 1.66 0.62 -0.94 -4.45 -8.08 -6.23 1.59 -8.26 -7.08 1.96 -10.86 -5.86 1.60 -5.03 -3.67 0.14 -2.06 -0.97 -3.99 -2.09 -0.75 -3.99 -1.11 -0.46 -4.00 -1.78 -1.23 -3.95 0.27 -0.18 -4.46 1.34 -0.89 -4.00 -4.01 -3.87 0.34 -10.33 -6.72 1.51 -5.90 -4.22 1.15 -3.71 -2.76 0.37 1.41 -1.32 -2.45 0.13 4.52 -1.28 -2.68 -1.29 -3.99 -1.60 -0.53 -4.00 -1.34 -0.58 -3.99 -3.00 -0.55 -3.90 -0.37 -0.04 -4.00 1.55 -0.31 -4.00 -0.18 -1.50 -3.85 -6.09 -4.09 0.99 -2.66 -3.14 0.53 2.56 -0.46 -2.70 1.66 -0.55 -2.62 0.24 3.58 -1.15 -0.73 3.43 -1.03 -1.66 3.56 -1.14 -2.13 -0.40 -4.00 -0.44 -0.36 -3.98 -0.50 -0.18 -3.97 1.54 0.09 -4.00 -0.01 -1.06 -3.81 1.38 -1.24 -2.68 1.26 4.18 -2.70 0.44 3.32 -1.89 -0.49 2.85 -1.36 -0.83 3.88 -0.83 -2.51 -0.76 -3.99 -0.65 -0.12 -3.89 -5.44 -3.13 0.38 -0.25 0.42 -4.00 0.16 -0.25 -3.83 1.72 4.81 -1.13 0.86 5.25 -1.10 1.14 8.40 -1.03 0.78 5.91 -1.60 -0.84 3.45 -2.55 -1.00 2.36 -3.18 -2.04 -0.58 -3.75 -0.07 3.02 -0.57 3.73 -0.49 1.29 -0.38 0.23 -3.95 2.44 10.53 -3.53 2.85 10.72 -4.05 1.44 6.22 -1.77 0.42 6.51 -1.88 -0.51 3.16 -3.41 -0.28 -0.70 3.01 -1.08 4.03 0.50 0.13 7.50 -3.41 0.16 8.54 -1.49 -1.99 1.63 -3.45 -0.64 -0.40 -3.99 -0.59 -0.17 -3.96 0.46 5.34 -4.02 0.75 1.09 -3.31 -0.08 1.18 -3.43 -0.81 1.65 -3.23 -1.56 1.76 -3.24 -1.20 -0.16 -3.52 -0.25 6.00 -1.77 -0.92 6.00 -0.91 0.25 6.00 -0.94 0.44 6.00 -0.83 0.08 6.00 -0.84 -0.07 6.00 -1.14 -0.00 6.00 -1.10 -0.62 6.00 -1.23 -0.91 6.00 -1.32 -0.65 6.00 -1.30 -0.41 6.00 -1.07 0.97 6.00 -1.23 0.30 6.00 -2.56 -11.76 -11.07 1.23 5.30 -4.62 -1.13 -1.33 -1.24 -3.81 1.00 -8.03 -4.76 -0.35 -8.19 -4.75 -2.43 -3.52 6.18 -7.82 -8.84 0.89 -7.49 -4.85 1.12 -2.12 -2.29 3.36 4.54 -1.63 -0.34 -9.11 -6.57 0.16 -9.89 -4.87 0.42 -2.29 -3.09 8.78 3.58 -0.49 -0.01 7.84 -3.57 0.73 -8.49 -7.23 -0.91 -7.82 -4.43 -0.21 -3.34 -1.52 -0.10 -0.45 -4.00 9.79 -0.87 -2.89 7.64 -1.14 -1.38 4.81 -1.53 -1.31 4.60 5.91 -1.79 0.94 8.86 -4.62 0.22 -8.66 -6.34 -1.52 -9.09 -6.19 -0.31 2.43 9.52 -4.11 0.77 -0.48 5.53 0.26 -0.02 4.32 0.37 -2.36 7.15 -0.02 -1.88 6.58 -0.65 -2.30 7.13 -0.64 -1.94 6.11 -0.61 -1.25 4.95 -0.95 -1.05 4.50 -1.38 8.79 -2.34 -2.25 8.39 -1.91 -1.88 5.71 -1.32 2.68 -1.01 1.10 3.74 5.71 -2.55 2.65 10.22 -4.44 0.98 1.90 3.36 0.58 1.37 3.72 0.69 1.95 2.86 0.71 0.27 4.55 0.43 1.27 4.11 -0.06 2.26 3.12 0.14 4.59 -0.66 -0.17 10.05 -5.62 1.81 8.72 -5.37 1.28 10.23 -7.23 0.72 10.28 -7.63 0.20 10.00 -7.28 0.53 6.00 -2.12 -0.22 6.00 -1.62 -0.33 6.00 -1.00 0.23 6.00 -1.24 0.22 6.00 -1.29 -0.19 6.00 -1.38 -0.18 6.00 -1.41 -0.23 6.00 -1.58 -0.67 6.00 -1.66 -0.79 6.00 -1.73 -0.59 6.00 -1.39 -0.75 6.00 -1.43 0.71 6.00 -1.58 5.14 -2.99 -2.79 -8.59 -10.63 -0.25 -10.51 -10.84 -0.29 -11.12 -9.95 -0.58 -9.60 -2.53 11.90 -9.40 -2.50 9.67 -5.23 -2.72 7.63 -0.95 -3.41 4.64 -8.94 -8.15 -2.23 1.11 -1.47 4.43 -2.31 -2.19 5.34 -10.33 -7.67 0.11 1.61 -0.86 4.97 -2.06 -1.80 5.37 -1.13 -0.67 3.00 9.25 -4.68 -0.78 6.86 -4.22 -0.56 -9.22 -8.25 -1.59 -3.25 -3.16 -0.71 1.82 0.60 3.95 1.47 -0.15 4.80 -0.39 -1.30 5.80 -0.92 -1.33 5.53 -1.42 -1.05 5.15 -1.66 -0.38 4.39 -1.64 -0.40 3.63 -2.32 12.04 -4.73 5.98 -4.43 -0.20 -7.68 -8.06 -7.13 -6.49 -6.39 -1.19 2.50 12.18 -5.02 2.09 2.28 1.98 1.64 1.76 2.98 1.14 0.87 3.91 0.88 0.32 4.58 0.71 -0.51 5.07 0.70 -0.05 4.74 0.51 0.67 4.35 -0.22 1.22 3.93 -0.90 1.31 3.93 -1.29 1.61 3.38 -1.84 4.24 -1.37 0.91 2.54 2.54 0.93 2.27 2.31 1.17 3.99 -2.00 -0.37 3.34 -0.88 0.24 7.00 -1.71 -0.13 7.00 -1.91 0.72 6.00 -2.10 -0.19 6.00 -2.44 0.34 6.00 -1.34 0.02 6.00 -1.56 -0.27 6.00 -1.67 -0.37 6.00 -1.69 -0.46 6.00 -1.79 -0.56 6.00 -1.73 -0.57 6.00 -1.78 -0.67 6.00 -1.82 -0.71 6.00 -1.79 -0.67 6.00 -2.03 0.16 6.00 -2.22 -0.54 -3.41 0.98 7.80 4.48 -2.94 2.38 -2.71 -2.04 3.09 4.46 -6.52 5.85 2.43 -2.91 4.94 2.21 -2.88 2.11 -2.04 -1.79 -11.49 -8.80 -1.33 -8.03 -8.76 0.26 -6.69 -1.43 8.59 -3.50 -2.34 6.70 -0.26 -3.95 5.67 -0.37 -3.97 5.39 1.01 -2.15 2.87 -0.97 -3.27 4.15 2.35 -1.52 4.69 -1.66 -2.68 4.14 2.43 0.39 3.20 -8.20 -9.36 -3.07 2.58 3.18 -3.22 2.52 1.24 1.56 2.44 0.95 2.58 -2.09 6.99 -2.47 -5.96 -9.30 -3.33 5.37 5.77 -5.83 0.73 1.47 3.30 0.44 1.42 3.43 -0.17 1.35 3.13 -0.67 1.42 2.97 -1.20 1.98 2.33 -2.76 12.27 -4.45 2.94 5.21 0.25 0.07 7.00 -2.21 -0.26 7.00 -2.34 -1.30 7.00 -2.47 -1.14 7.00 -2.66 0.75 6.00 -2.92 0.01 6.00 -3.44 0.11 6.00 -2.04 -0.08 6.00 -2.15 -0.41 6.00 -1.96 -0.62 6.00 -1.96 -0.71 6.00 -2.18 -0.70 6.00 -2.18 -0.65 6.00 -2.03 -0.76 6.00 -1.79 -0.85 6.00 -2.16 -0.89 6.00 -2.21 -0.72 6.00 -2.18 -2.44 0.73 -1.62 -3.43 -0.28 -1.65 -4.43 -0.31 -1.67 5.45 4.19 -3.95 -3.42 -1.15 -1.59 -4.42 -1.23 -1.64 5.81 3.34 -4.23 -13.32 -7.86 -2.76 -6.45 -6.73 -0.31 -2.05 -4.95 -1.89 -12.46 -1.30 3.89 9.33 -5.41 1.88 -10.03 -0.43 10.14 -4.90 -1.69 5.56 4.17 -3.47 -4.11 8.93 -3.91 0.46 -1.75 -4.96 8.56 -0.43 -4.30 5.17 0.01 -2.56 2.21 1.95 -2.48 2.47 3.07 -2.10 4.35 3.04 0.47 1.88 -4.05 1.61 -3.32 -6.55 -8.88 -5.79 4.19 1.71 -4.23 2.67 -2.01 -0.51 3.66 -4.55 -2.30 0.80 5.30 -0.69 -1.50 13.00 -6.02 2.77 4.36 0.24 3.86 3.55 1.00 -0.02 6.00 -2.72 -0.09 6.00 -2.42 -0.45 6.00 -2.30 -0.76 6.00 -2.38 -0.64 6.00 -2.57 -0.58 6.00 -2.66 -0.70 6.00 -2.58 -0.68 6.00 -2.10 -0.85 6.00 -2.05 -0.67 6.00 -2.10 -0.73 6.00 -2.04 -2.48 0.76 -2.40 -3.49 0.76 -2.25 -2.37 -0.21 -2.43 -3.44 -0.21 -2.58 -4.44 -0.20 -2.58 -3.22 -1.12 -2.54 -4.39 -1.16 -2.55 -11.77 -3.80 2.57 14.34 -4.41 0.63 13.77 -4.13 0.80 1.86 0.07 3.48 14.51 -2.55 1.86 -11.40 -0.66 11.78 -10.92 1.24 4.52 5.05 -2.08 0.75 4.26 -0.77 -0.03 -10.67 -1.00 9.44 -6.68 -0.63 4.44 2.38 -1.26 -2.31 -2.14 -4.59 9.38 -1.95 -5.56 7.10 -1.24 -4.34 3.83 -8.65 -9.70 -5.27 -2.56 -4.66 4.85 -1.66 -3.81 2.98 3.33 -3.44 4.56 -0.46 -2.78 1.89 -1.99 3.19 -3.50 -7.43 -9.75 -4.75 3.22 -0.84 1.90 -6.81 -10.02 -2.14 -6.61 -8.88 -6.88 -5.08 -7.49 -3.37 3.43 1.92 -1.07 3.35 0.47 0.63 -2.52 2.36 0.50 5.14 7.51 -5.52 -1.20 7.86 -6.48 -1.74 1.70 -2.68 3.64 -3.70 1.78 2.95 4.14 0.66 2.29 4.88 0.19 -8.45 -0.22 4.54 -4.13 1.19 4.44 -0.91 -4.59 5.99 -0.65 -4.14 3.56 3.34 -4.76 4.49 3.14 -3.67 2.97 -1.59 -3.35 2.27 6.60 3.92 -3.16 2.97 -1.71 0.91 1.69 -0.11 -5.11 3.96 -1.06 1.58 -2.18 2.93 -0.08 1.29 -3.08 -3.92 6.04 -4.50 0.89 4.47 -7.05 -2.78 2.54 4.33 -1.07 -2.94 2.77 0.03 -0.94 2.54 -3.48 2.67 3.84 -0.12 3.21 4.00 0.06 -1.06 6.00 -0.92 -3.89 -0.07 5.39 -4.55 -0.26 5.80 -3.84 0.20 4.72 -4.70 0.20 4.78 -5.05 -0.23 5.51 -4.30 -0.10 4.20 -4.76 -0.08 4.33 -4.82 -0.26 4.59 -5.33 -0.67 5.17 -4.60 -0.73 4.36 -5.56 -0.79 4.18 -5.83 -0.78 4.11 -5.34 -0.62 4.36 -4.53 -1.37 4.12 -5.50 -1.43 4.18 -6.47 -1.54 4.16 -4.57 -1.84 3.96 2.73 -4.60 1.39 -2.03 -4.35 7.66 -1.50 -4.86 4.61 -2.62 -4.82 3.55 3.29 -3.86 2.45 -2.11 -2.40 5.08 -3.17 1.51 -0.87 -7.13 -10.68 -3.66 4.34 0.70 -1.17 3.87 -2.53 1.30 3.26 -2.08 -0.05 5.92 -5.19 -0.22 2.70 3.83 1.21 -2.83 3.53 -0.42 1.49 -2.51 1.33 4.34 -3.90 0.65 3.50 2.68 0.74 2.77 4.28 -0.57 2.88 5.75 -0.65 -3.76 -2.78 2.78 -3.27 1.09 5.25 -3.87 0.85 5.70 -2.73 0.55 4.39 -3.40 0.44 4.78 -3.82 0.29 5.38 -4.25 0.17 5.83 -2.51 0.53 3.89 -3.21 0.35 4.10 -3.81 -0.01 4.54 -4.28 -0.22 5.11 -4.69 -0.32 5.71 -2.10 0.18 3.65 -2.72 0.10 3.80 -3.51 0.01 3.96 -4.12 -0.05 4.48 -4.61 -0.40 5.00 -5.10 -0.74 5.40 -3.38 -0.02 3.17 -2.95 -0.29 3.54 -3.58 -0.48 3.80 -4.10 -0.71 4.54 -4.84 -0.84 4.87 -5.62 -1.11 5.05 -3.52 -0.66 3.50 -4.40 -0.83 3.10 -3.79 -0.69 3.29 -3.82 -0.78 3.53 -4.47 -0.97 3.90 -4.87 -1.41 4.86 -5.69 -1.56 5.05 -3.53 -1.39 3.27 -4.50 -1.43 3.21 -4.91 -1.55 3.20 -4.65 -1.31 3.35 -5.06 -1.30 3.45 -5.79 -1.39 3.64 -3.71 -1.74 2.90 -4.73 -1.78 2.91 -5.53 -2.15 3.12 -6.21 -2.21 3.14 -5.37 -1.99 3.42 -3.09 -1.80 2.86 -4.06 -1.69 2.82 -4.68 -2.28 2.90 -5.59 -2.64 2.95 -3.09 -2.70 2.84 -3.96 -2.91 2.89 -4.89 -2.95 2.88 -0.01 -3.52 -1.28 -1.66 -4.87 -0.75 -1.14 -3.29 -2.45 -1.09 -4.79 -1.03 -2.41 -4.43 -2.26 -1.63 -5.17 -1.72 -2.22 -5.18 -2.46 -1.64 -3.54 7.29 -0.86 -2.33 4.92 -3.26 2.38 0.21 2.80 -2.74 0.11 -4.58 0.68 -0.89 -7.44 -10.76 -4.33 1.21 2.09 -5.87 3.77 -1.97 0.04 2.30 1.84 -4.95 3.53 -3.07 0.40 -1.97 -3.76 1.13 -1.94 -2.93 0.32 5.93 -4.06 0.79 2.91 3.79 0.77 2.76 4.22 -0.49 0.23 2.65 -1.61 3.49 3.89 -0.72 2.83 2.74 0.08 2.95 4.83 -0.29 2.95 4.16 0.31 -2.37 3.00 0.51 3.38 3.94 0.46 -2.12 1.75 4.84 -2.61 1.49 5.34 -2.98 1.07 5.93 -3.48 0.65 6.56 -1.56 1.34 4.18 -2.37 1.15 4.29 -2.83 0.81 4.77 -3.14 0.58 5.45 -3.80 0.37 5.77 -1.75 0.59 3.45 -2.34 0.38 3.84 -2.85 0.28 4.34 -3.19 0.18 4.88 -3.85 0.07 5.16 -4.54 -0.15 5.53 -1.50 0.47 2.91 -2.11 0.28 3.21 -2.95 0.30 3.47 -3.14 0.06 4.33 -3.78 -0.02 4.73 -4.13 -0.25 5.09 -4.50 -0.29 5.32 -1.74 0.08 2.80 -2.42 -0.05 3.04 -3.07 -0.12 3.53 -3.67 -0.28 3.97 -4.28 -0.53 4.25 -4.50 -0.74 4.91 -4.49 -0.62 5.30 -4.56 -0.97 5.82 -3.22 0.01 2.13 -2.04 -0.14 2.49 -2.56 -0.54 2.83 -3.03 -0.72 3.64 -3.82 -0.80 3.89 -4.65 -0.99 4.04 -5.15 -1.19 4.39 -4.59 -1.14 5.21 -4.62 -1.34 5.86 -3.51 -0.81 2.25 -3.17 -0.70 2.24 -2.81 -0.81 2.54 -3.26 -1.15 3.29 -3.88 -1.39 3.85 -4.66 -1.58 4.09 -5.36 -1.70 4.33 -4.97 -1.58 5.11 -2.43 -1.64 2.77 -3.42 -1.47 2.33 -3.34 -1.41 2.27 -2.92 -1.13 2.61 -3.91 -1.39 2.54 -4.63 -1.43 2.79 -4.70 -2.12 4.07 -5.41 -2.27 4.36 -5.23 -2.11 5.08 -1.59 -2.45 2.53 -2.35 -2.69 2.92 -3.36 -2.11 2.22 -4.17 -1.92 2.11 -3.60 -1.39 2.44 -3.94 -1.83 2.71 -4.79 -2.01 2.80 -5.07 -2.23 3.54 -5.40 -2.33 4.36 -1.43 -3.22 2.41 -3.07 -1.80 1.86 -3.56 -2.36 1.93 -4.42 -2.60 2.00 -5.21 -2.50 2.02 -5.50 -2.42 2.20 -5.11 -2.64 2.61 -4.95 -2.75 3.99 -1.63 -3.87 2.05 -2.80 -3.23 1.96 -3.73 -3.14 1.95 -4.65 -3.25 1.96 -5.50 -3.46 1.95 -1.86 -4.46 1.92 -2.84 -4.09 2.00 -3.80 -4.10 1.99 -4.79 -4.09 1.98 -1.63 -4.29 -1.25 -1.56 -2.66 -0.38 -1.51 -4.73 -1.41 -2.87 -2.04 -0.40 -1.32 -5.57 -2.01 -2.59 -2.30 -1.90 3.76 -3.27 1.60 2.67 -3.42 -0.96 -3.51 1.94 -1.98 -1.06 -0.87 -3.57 -2.79 2.89 -0.54 -4.11 -7.69 -6.16 -5.10 -7.44 -6.65 3.46 -3.35 -0.04 3.70 -6.34 2.31 3.84 8.62 -7.23 3.82 -0.45 -1.88 3.18 -4.60 0.26 4.11 1.80 3.35 2.75 -1.71 -1.30 1.48 -3.40 -0.50 0.81 -3.33 -0.48 0.51 -4.05 -0.23 0.52 -4.50 0.12 -1.83 0.63 -2.60 -1.89 2.09 -2.81 2.93 5.92 -0.35 3.01 2.82 0.76 0.90 1.97 -2.64 2.97 4.57 -0.49 2.48 2.68 -0.38 -1.54 3.30 -0.42 3.78 4.84 -0.75 2.66 4.74 -0.32 2.83 4.04 -0.37 2.71 3.00 0.39 -2.17 0.88 6.95 -2.30 1.45 6.39 -2.55 0.92 6.56 -3.01 0.75 6.54 -1.31 2.10 4.81 -1.66 1.68 5.49 -2.18 1.24 6.01 -2.85 1.05 6.11 -2.93 0.64 6.14 -3.17 0.25 6.25 -2.97 -0.08 6.18 -1.31 1.92 3.72 -1.81 1.62 4.09 -2.41 1.43 4.47 -2.67 0.93 5.15 -3.06 0.60 5.68 -3.08 0.19 5.92 -3.23 -0.04 5.88 -3.06 -0.24 6.02 -1.42 1.19 3.32 -1.87 0.85 3.69 -2.26 0.72 4.22 -2.77 0.48 4.70 -3.36 0.38 4.90 -3.19 0.27 5.44 -3.70 0.33 5.62 -3.62 0.12 5.98 -1.61 0.68 2.72 -2.10 0.47 3.16 -2.21 0.25 3.88 -2.87 0.25 4.12 -3.45 0.24 4.39 -3.44 0.05 5.24 -3.89 -0.15 5.59 -4.12 -0.23 5.87 -1.70 0.08 2.77 -2.29 -0.06 3.15 -2.73 -0.01 3.78 -3.02 -0.11 4.15 -3.27 -0.17 4.43 -3.42 -0.40 5.06 -4.01 -0.56 5.43 -4.27 -0.55 5.80 -4.38 -0.98 6.14 -2.01 -0.30 2.56 -2.65 -0.40 2.97 -3.25 -0.54 3.28 -3.69 -0.63 3.76 -3.46 -0.54 4.31 -3.72 -0.62 4.76 -4.17 -0.90 5.08 -4.02 -1.03 5.80 -4.37 -1.19 5.97 -1.91 -0.73 2.80 -2.80 -0.80 2.92 -3.57 -1.03 3.10 -4.16 -1.07 3.40 -3.58 -0.93 4.25 -3.71 -1.04 4.82 -4.02 -1.21 5.29 -3.75 -1.36 5.81 -3.68 -1.31 6.32 -2.31 -0.82 2.19 -2.80 -1.29 2.95 -3.50 -1.56 3.24 -4.11 -1.56 3.52 -3.66 -1.49 4.35 -3.67 -1.60 4.90 -3.59 -1.46 5.39 -3.64 -1.66 5.75 -2.55 -0.99 2.11 -2.99 -1.63 2.60 -3.53 -1.65 3.22 -4.15 -2.03 3.57 -3.88 -2.13 4.30 -3.70 -2.19 4.93 -3.59 -1.65 5.61 -3.65 -1.76 5.88 -2.39 -2.66 1.85 -2.48 -1.16 1.52 -2.85 -1.40 2.04 -3.37 -1.72 2.53 -3.58 -2.03 3.25 -3.87 -1.99 3.89 -3.84 -2.26 4.65 -3.55 -2.47 5.30 -3.85 -2.29 5.67 -1.48 -3.09 1.31 -2.51 -2.38 1.08 -3.39 -2.14 1.10 -3.26 -1.49 1.36 -3.20 -1.98 1.85 -3.79 -2.28 2.23 -3.85 -2.75 3.12 -4.10 -2.83 3.78 -4.19 -3.06 4.49 -3.40 -3.08 5.54 -1.71 -3.76 1.01 -2.59 -3.50 1.07 -3.58 -3.38 1.06 -4.56 -3.26 1.07 -3.92 -2.35 1.53 -3.80 -2.43 2.96 -4.01 -2.07 4.09 -1.82 -4.57 0.94 -2.54 -4.80 1.15 -3.66 -4.31 1.09 -4.64 -4.34 1.04 -5.57 -4.35 1.03 -2.61 -5.67 1.06 -3.70 -5.33 1.05 -0.62 -3.93 -1.14 3.90 -2.67 0.44 -5.04 3.37 2.20 -3.56 2.87 2.97 -4.11 2.68 2.65 -4.25 2.40 2.98 -4.81 2.13 2.99 4.56 1.44 2.60 -4.04 1.43 2.25 -4.96 1.60 2.27 -4.76 1.56 2.92 -5.24 1.42 2.97 4.64 0.40 2.58 -4.06 0.38 2.24 -5.03 0.45 2.25 -5.85 0.81 2.32 -5.91 0.62 2.81 -5.07 -0.63 2.24 -5.82 -0.10 2.32 2.93 -4.39 0.70 -3.45 -3.24 0.18 -3.15 -2.62 -3.63 3.41 -6.75 1.66 0.60 1.84 -4.25 2.09 7.01 -6.58 0.81 3.18 -2.72 2.99 -4.86 -0.46 2.55 -6.38 0.44 -1.21 -4.37 -0.06 -0.75 -3.06 -0.37 3.09 -1.22 -2.41 2.41 -3.31 -1.42 1.91 -3.55 -1.21 1.39 -3.74 -1.19 0.74 -4.03 -0.99 0.75 -4.70 -0.58 0.54 -5.15 -0.27 0.04 -5.01 -0.32 -0.40 -3.35 -1.15 4.06 1.92 0.23 3.46 1.73 1.65 2.94 4.99 -0.44 2.82 3.41 -0.36 -2.75 3.49 -0.47 2.22 2.99 0.21 -1.61 0.59 6.32 -2.46 0.45 6.36 -3.15 0.39 6.43 -1.57 0.39 6.10 -2.35 0.39 6.08 -2.97 0.11 6.29 -1.73 0.20 5.97 -2.47 0.23 6.00 -2.91 -0.08 6.15 -3.13 0.36 6.59 -1.48 1.39 5.79 -1.96 0.80 5.94 -2.59 0.74 5.86 -2.72 0.41 6.05 -2.99 0.40 6.24 -3.73 0.15 6.34 -1.04 1.88 5.32 -1.54 1.67 5.33 -2.12 1.39 5.34 -2.15 1.03 5.43 -2.51 0.59 5.39 -2.67 0.20 5.78 -3.00 0.34 5.96 -3.52 0.24 6.04 -3.94 0.18 6.19 -0.69 2.16 3.69 -0.78 1.71 4.41 -1.19 1.25 5.01 -1.83 1.10 5.07 -2.08 0.83 5.07 -2.24 0.55 5.07 -2.23 0.42 4.93 -2.72 0.20 5.22 -3.19 0.15 5.51 -3.53 -0.05 5.78 -3.74 -0.23 6.11 -4.24 -0.20 6.41 -0.97 1.61 3.07 -1.31 1.35 3.59 -1.78 1.02 4.03 -2.19 0.76 4.48 -2.31 0.36 4.88 -2.54 0.29 4.81 -2.41 0.06 4.97 -2.86 -0.18 5.13 -3.51 -0.23 5.32 -3.65 0.01 5.66 -3.65 -0.27 5.99 -4.07 -0.48 6.31 -1.43 0.78 3.04 -1.96 0.69 3.44 -2.44 0.53 3.79 -2.48 0.41 4.30 -2.77 0.21 4.59 -3.05 -0.06 4.83 -3.09 -0.65 5.08 -3.65 -0.65 5.27 -3.38 -0.16 5.78 -3.75 0.22 5.93 -3.88 0.31 6.40 -2.03 0.39 3.04 -2.59 0.24 3.31 -2.98 0.06 3.74 -3.09 -0.01 4.50 -3.53 -0.08 4.74 -3.40 -0.33 5.10 -3.47 -0.73 5.31 -3.12 -0.27 5.86 -3.37 0.18 6.12 -3.47 0.27 6.66 -2.16 -0.12 3.11 -2.64 -0.05 3.26 -2.61 -0.22 3.86 -3.06 -0.34 4.30 -3.54 -0.32 4.63 -3.50 -0.36 4.98 -3.32 -0.58 5.25 -2.67 -0.36 6.24 -3.02 -0.45 6.59 -3.08 -0.34 6.89 3.13 2.09 6.23 -2.48 -0.55 2.89 -2.57 -0.45 3.25 -2.78 -0.42 3.73 -2.80 -0.57 4.39 -2.99 -0.77 4.78 -3.25 -0.67 4.95 -2.99 -0.61 5.68 -2.44 -0.61 6.61 -2.62 -0.69 6.85 -2.89 -0.74 6.93 3.19 0.46 6.29 2.92 0.88 6.24 3.10 1.26 5.94 2.64 1.82 5.78 -2.58 -0.78 2.78 -2.44 -0.80 3.39 -2.69 -0.91 3.85 -3.03 -0.83 4.29 -2.76 -0.92 4.76 -2.78 -0.96 5.30 -2.76 -0.99 6.12 -2.76 -0.93 6.47 -2.56 -1.10 6.75 3.73 -0.45 6.41 3.27 -0.20 6.23 2.74 0.06 6.20 3.14 0.63 5.71 2.69 0.99 5.64 1.94 1.15 5.58 -2.45 -1.31 2.32 -2.39 -1.20 2.98 -2.52 -1.40 3.47 -2.53 -1.47 4.00 -2.47 -1.15 4.43 -2.49 -1.38 4.79 -2.75 -1.32 5.51 -2.94 -1.27 6.11 -2.72 -1.49 6.25 -2.10 -1.69 6.78 4.31 -0.92 6.19 3.60 -0.54 6.03 3.44 -0.30 5.79 3.37 0.10 5.57 2.71 0.30 5.54 1.99 0.42 5.48 1.29 0.66 5.64 -2.07 -1.16 2.66 -2.42 -1.34 3.18 -2.87 -1.55 3.54 -2.53 -1.71 4.23 -2.48 -1.39 4.75 -2.57 -1.67 4.96 -2.77 -1.68 5.68 -3.01 -1.85 6.24 -3.21 -1.91 6.54 4.64 -1.13 5.85 3.84 -1.03 5.75 4.18 -0.85 5.58 3.59 -0.55 5.58 2.88 -0.28 5.51 2.05 -0.18 5.40 1.29 -0.08 5.45 -2.57 -1.77 2.45 -2.78 -1.88 3.01 -3.02 -2.15 3.58 -2.87 -2.36 4.11 -2.59 -2.03 4.83 -2.43 -2.15 5.13 -2.59 -2.52 5.92 -3.04 -2.62 6.37 4.52 -1.38 5.64 3.73 -1.21 5.59 3.01 -0.98 5.41 2.22 -0.87 5.41 1.58 -0.67 5.57 -2.10 -1.66 1.42 -2.74 -1.90 1.65 -2.81 -2.47 2.39 -2.72 -2.75 3.14 -2.85 -3.07 3.70 -2.89 -3.20 4.16 -2.40 -2.75 5.01 -2.55 -2.78 5.17 -2.77 -3.13 5.82 -1.72 -3.74 0.00 -2.42 -4.06 0.32 -3.50 -2.58 0.39 -2.53 -2.30 1.16 -3.07 -2.55 1.56 -3.65 -2.68 1.94 -3.30 -2.66 3.38 -4.04 -3.39 3.06 -3.52 -3.99 3.90 -1.97 -3.69 5.11 -2.55 -4.89 0.16 -3.76 -3.72 0.35 -4.54 -3.20 0.63 -3.37 -3.29 1.46 -3.46 -0.89 5.93 -2.65 -5.57 0.18 -3.80 -5.03 0.19 -4.78 -5.00 0.19 -3.04 3.50 2.52 -3.82 3.74 1.35 -2.53 2.84 2.01 -3.28 2.67 2.08 -4.06 2.52 2.40 -4.53 1.93 2.94 -5.82 1.37 3.40 -5.37 0.68 3.42 -3.44 2.78 1.51 -2.84 2.10 2.00 -3.51 1.85 2.01 -4.49 1.85 2.02 -5.20 1.62 2.19 -5.94 1.46 2.49 3.98 1.49 2.10 3.54 1.46 1.73 -3.00 1.61 1.74 -3.16 1.36 2.00 -3.80 1.12 1.99 -4.74 1.08 1.99 -5.69 1.03 2.00 5.06 0.67 2.09 4.52 0.49 1.74 -3.93 0.63 1.85 -4.71 0.61 1.95 -5.46 0.54 1.97 -3.36 -0.82 2.07 -3.64 -0.50 -0.15 -3.63 0.14 4.78 2.98 -7.80 1.69 -2.20 2.20 -2.53 2.52 3.48 0.27 2.24 -6.61 -0.03 -0.26 -7.70 0.78 -0.46 -7.38 0.68 -0.81 -6.13 0.20 -1.01 -4.91 -0.42 -0.83 -3.90 -0.95 -0.79 -4.34 -0.45 -0.98 -4.92 -0.20 -0.91 -4.38 -0.10 -1.06 -3.60 -0.33 2.83 7.71 -7.33 2.57 3.32 -3.84 2.22 -1.62 -2.54 1.70 -3.43 -2.00 1.34 -3.32 -1.95 0.78 -3.44 -1.82 0.49 -3.44 -1.69 0.26 -3.18 -1.54 -1.84 2.17 -1.06 -2.59 5.53 -2.15 7.34 -4.35 2.66 1.48 4.48 -3.50 0.05 10.00 -4.43 -0.05 10.00 -6.07 -0.48 10.00 -5.80 2.69 2.76 0.18 -3.02 2.00 0.36 2.29 2.98 0.87 -0.88 0.75 5.74 -1.60 0.79 5.84 -2.32 0.77 5.94 -3.01 1.17 5.95 -0.66 0.52 5.70 -1.50 0.47 5.72 -2.20 1.10 5.50 -2.95 0.97 5.69 -3.79 1.02 5.80 -0.70 0.61 5.32 -1.53 0.67 5.29 -2.25 0.65 5.32 -2.96 0.59 5.49 -3.68 0.64 5.75 -0.65 0.42 5.10 -1.42 0.53 5.06 -2.03 0.51 5.12 -2.74 0.58 5.41 -3.58 0.67 5.54 -3.32 1.23 5.83 -3.84 1.33 5.86 -0.26 1.07 5.28 -0.88 0.58 5.06 -1.61 0.13 4.98 -1.99 0.32 5.06 -2.34 0.50 5.44 -2.86 0.55 5.57 -3.13 0.63 5.71 -3.68 0.75 5.72 -4.33 0.74 5.77 -0.35 2.20 4.61 -0.79 1.82 4.67 -1.26 1.21 4.82 -1.84 0.71 4.95 -1.77 0.30 5.08 -2.30 0.30 5.20 -2.89 0.26 5.29 -3.20 0.48 5.34 -3.55 0.41 5.55 -3.99 0.35 5.73 -4.48 0.39 5.95 -0.39 2.19 4.04 -0.75 1.76 4.34 -1.38 1.63 4.28 -1.87 1.19 4.42 -1.72 0.96 4.25 -1.90 0.24 4.65 -2.23 0.12 5.01 -2.81 0.16 5.05 -3.10 0.16 5.13 -3.65 0.17 5.37 -4.05 0.43 5.56 -4.31 0.59 5.74 -4.22 0.85 6.09 -0.56 2.41 2.72 -0.13 1.85 3.13 -0.56 1.48 3.75 -1.00 1.09 4.11 -1.55 0.98 4.09 -1.82 0.76 4.06 -1.54 0.64 3.91 -1.94 0.46 4.05 -2.51 0.39 4.31 -2.82 0.12 4.64 -2.72 0.01 5.04 -3.28 -0.18 5.38 -3.78 -0.07 5.54 -3.89 0.24 5.73 -3.91 0.62 5.90 -1.27 0.52 3.76 -1.67 0.38 3.90 -1.93 0.39 3.83 -1.84 0.23 3.90 -2.14 0.01 4.03 -2.81 -0.09 4.17 -3.23 -0.15 4.45 -3.11 0.02 4.82 -3.34 -0.27 5.13 -3.40 -0.19 5.49 -3.31 0.64 5.97 -3.43 1.07 6.21 -1.95 0.49 3.01 -1.96 0.27 3.52 -2.35 0.12 3.73 -2.69 -0.02 3.95 -3.07 -0.26 4.10 -2.26 0.24 4.82 -2.95 0.13 4.89 -3.11 0.54 5.20 -3.26 0.64 5.77 -3.14 0.96 6.25 -2.33 1.07 6.65 3.17 0.82 6.52 2.68 0.75 6.57 2.11 1.05 6.42 3.01 3.17 5.95 2.34 3.44 5.76 -2.07 0.25 2.63 -2.12 0.32 3.41 -2.74 0.19 3.65 -2.95 -0.04 3.94 -3.31 -0.20 4.14 -2.98 -0.33 4.47 -2.63 0.25 5.03 -2.86 0.33 5.51 -2.93 0.38 5.87 -2.14 0.42 6.21 -2.18 0.83 6.77 3.32 0.46 6.65 3.00 0.29 6.78 3.00 0.37 6.45 2.94 0.43 6.32 2.75 0.34 6.34 2.46 0.56 6.27 2.24 0.96 6.16 3.27 1.78 5.70 3.12 2.40 5.53 2.49 2.60 5.54 2.08 2.98 5.37 1.48 3.54 5.23 -2.08 0.06 2.51 -2.21 -0.10 3.09 -2.60 -0.18 3.57 -3.02 -0.32 3.84 -3.26 -0.26 4.01 -2.13 -0.16 5.00 -1.98 -0.15 5.77 -2.41 -0.18 5.89 -2.44 0.01 5.99 -1.91 -0.03 6.24 -2.00 0.48 6.88 2.99 -0.27 6.75 2.92 -0.53 6.69 3.26 -0.25 6.26 2.82 -0.15 6.34 2.60 0.02 6.25 2.67 0.25 6.17 2.72 0.23 6.10 2.24 0.23 6.08 2.13 0.71 6.11 1.94 1.05 5.48 2.92 1.99 5.18 2.36 2.42 5.10 1.55 2.64 5.09 -1.72 -0.34 2.78 -2.10 -0.45 3.21 -2.45 -0.59 3